REMARK SMILES CCC(CC)C(=O)N1N=C(c2ccc(NS(C)(=O)=O)cc2)C[C@H]1c1ccccc1
REMARK SMILES IDX 8 1 9 2 10 3 22 4 23 5 6 6 7 7 3 8 2 9 1 10 4 11 5 12 24 13
REMARK SMILES IDX 25 14 29 15 26 16 28 17 27 18 11 19 12 20 21 21 13 22 20 23
REMARK SMILES IDX 14 24 15 25 16 27 18 28 19 29 17 30
REMARK H PARENT 15 26
ROOT
ATOM      1  N   UNL     1      -1.034  -0.419  -0.486  1.00  0.00    -0.225 N 
ATOM      2  N   UNL     1       0.285  -0.445  -0.888  1.00  0.00    -0.174 NA
ATOM      3  C   UNL     1       1.008  -0.095   0.131  1.00  0.00     0.071 C 
ATOM      4  C   UNL     1       0.242   0.146   1.403  1.00  0.00     0.091 C 
ATOM      5  C   UNL     1      -1.183   0.151   0.859  1.00  0.00     0.147 C 
ENDROOT
BRANCH   1   6
ATOM      6  C   UNL     1      -2.016  -0.854  -1.369  1.00  0.00     0.246 C 
ATOM      7  O   UNL     1      -1.759  -1.245  -2.512  1.00  0.00    -0.273 OA
BRANCH   6   8
ATOM      8  C   UNL     1      -3.460  -0.898  -0.841  1.00  0.00     0.080 C 
BRANCH   8   9
ATOM      9  C   UNL     1      -3.649  -2.169   0.013  1.00  0.00     0.010 C 
ATOM     10  C   UNL     1      -4.502  -1.933   1.254  1.00  0.00     0.005 C 
ENDBRANCH   8   9
BRANCH   8  11
ATOM     11  C   UNL     1      -4.437  -0.832  -2.035  1.00  0.00     0.010 C 
ATOM     12  C   UNL     1      -5.898  -0.689  -1.639  1.00  0.00     0.005 C 
ENDBRANCH   8  11
ENDBRANCH   6   8
ENDBRANCH   1   6
BRANCH   5  13
ATOM     13  C   UNL     1      -1.765   1.556   0.873  1.00  0.00    -0.023 A 
ATOM     14  C   UNL     1      -1.495   2.484  -0.146  1.00  0.00     0.006 A 
ATOM     15  C   UNL     1      -2.572   1.957   1.950  1.00  0.00     0.006 A 
ATOM     16  C   UNL     1      -2.032   3.771  -0.095  1.00  0.00     0.000 A 
ATOM     17  C   UNL     1      -3.107   3.245   1.998  1.00  0.00     0.000 A 
ATOM     18  C   UNL     1      -2.838   4.151   0.975  1.00  0.00     0.000 A 
ENDBRANCH   5  13
BRANCH   3  19
ATOM     19  C   UNL     1       2.484   0.022   0.070  1.00  0.00    -0.002 A 
ATOM     20  C   UNL     1       3.250   0.258   1.215  1.00  0.00     0.012 A 
ATOM     21  C   UNL     1       3.123  -0.100  -1.170  1.00  0.00     0.012 A 
ATOM     22  C   UNL     1       4.642   0.364   1.117  1.00  0.00     0.027 A 
ATOM     23  C   UNL     1       4.514   0.010  -1.264  1.00  0.00     0.027 A 
ATOM     24  C   UNL     1       5.280   0.222  -0.119  1.00  0.00     0.048 A 
BRANCH  24  25
ATOM     25  N   UNL     1       6.696   0.360  -0.161  1.00  0.00    -0.284 N 
ATOM     26  H   UNL     1       7.162   0.758   0.654  1.00  0.00     0.180 HD
BRANCH  25  27
ATOM     27  S   UNL     1       7.666  -0.749  -0.968  1.00  0.00     0.229 S 
ATOM     28  O   UNL     1       7.273  -0.837  -2.356  1.00  0.00    -0.207 OA
ATOM     29  O   UNL     1       9.024  -0.412  -0.595  1.00  0.00    -0.207 OA
ATOM     30  C   UNL     1       7.257  -2.283  -0.158  1.00  0.00     0.183 C 
ENDBRANCH  25  27
ENDBRANCH  24  25
ENDBRANCH   3  19
TORSDOF 8
