REMARK SMILES Cc1ccc(S(=O)(=O)Nc2cccnc2)cc1C
REMARK SMILES IDX 6 1 7 2 8 3 5 4 2 5 3 6 17 7 4 8 16 9 1 10 18 11 9 12 10 14
REMARK SMILES IDX 11 15 15 16 12 17 14 18 13 19
REMARK H PARENT 9 13
ROOT
ATOM      1  S   UNL     1       0.744  -1.935  -1.839  1.00  0.00     0.261 S 
ATOM      2  O   UNL     1       1.398  -1.365  -2.996  1.00  0.00    -0.201 OA
ATOM      3  O   UNL     1       0.037  -3.196  -1.920  1.00  0.00    -0.201 OA
ENDROOT
BRANCH   1   4
ATOM      4  C   UNL     1      -0.384  -0.728  -1.181  1.00  0.00     0.088 A 
ATOM      5  C   UNL     1      -2.179   1.156  -0.152  1.00  0.00    -0.048 A 
ATOM      6  C   UNL     1      -1.135   1.552  -1.005  1.00  0.00     0.005 A 
ATOM      7  C   UNL     1      -2.332  -0.209   0.174  1.00  0.00    -0.047 A 
ATOM      8  C   UNL     1      -0.242   0.615  -1.525  1.00  0.00     0.022 A 
ATOM      9  C   UNL     1      -1.429  -1.146  -0.350  1.00  0.00     0.026 A 
ATOM     10  C   UNL     1      -3.125   2.199   0.381  1.00  0.00     0.044 C 
ATOM     11  C   UNL     1      -3.449  -0.681   1.065  1.00  0.00     0.044 C 
ENDBRANCH   1   4
BRANCH   1  12
ATOM     12  N   UNL     1       1.870  -2.114  -0.594  1.00  0.00    -0.278 N 
ATOM     13  H   UNL     1       1.599  -2.837   0.069  1.00  0.00     0.180 HD
BRANCH  12  14
ATOM     14  C   UNL     1       2.557  -0.966  -0.104  1.00  0.00     0.067 A 
ATOM     15  C   UNL     1       2.434  -0.625   1.241  1.00  0.00     0.030 A 
ATOM     16  C   UNL     1       3.346  -0.153  -0.912  1.00  0.00     0.137 A 
ATOM     17  C   UNL     1       3.083   0.511   1.721  1.00  0.00     0.022 A 
ATOM     18  N   UNL     1       3.984   0.958  -0.471  1.00  0.00    -0.263 NA
ATOM     19  C   UNL     1       3.837   1.264   0.835  1.00  0.00     0.111 A 
ENDBRANCH  12  14
ENDBRANCH   1  12
TORSDOF 3
