REMARK SMILES CCc1ccc(OC)c(S(=O)(=O)N2CCN(C(=O)c3ccco3)CC2)c1
REMARK SMILES IDX 3 1 4 2 5 3 6 4 9 5 26 6 2 7 1 8 10 9 11 10 12 11 13 12
REMARK SMILES IDX 14 13 25 14 15 15 24 16 16 17 17 18 18 19 19 20 20 21 23 22
REMARK SMILES IDX 21 23 22 24 7 25 8 26
REMARK H PARENT
ROOT
ATOM      1  C   UNL     1      -3.870  -0.124   0.724  1.00  0.00    -0.047 A 
ATOM      2  C   UNL     1      -4.363  -1.122  -0.125  1.00  0.00     0.007 A 
ATOM      3  C   UNL     1      -3.684  -1.454  -1.300  1.00  0.00     0.048 A 
ATOM      4  C   UNL     1      -2.512  -0.779  -1.649  1.00  0.00     0.138 A 
ATOM      5  C   UNL     1      -2.002   0.202  -0.799  1.00  0.00     0.124 A 
ATOM      6  C   UNL     1      -2.685   0.540   0.378  1.00  0.00     0.029 A 
ENDROOT
BRANCH   1   7
ATOM      7  C   UNL     1      -4.617   0.252   1.979  1.00  0.00     0.032 C 
ATOM      8  C   UNL     1      -5.617   1.370   1.728  1.00  0.00     0.009 C 
ENDBRANCH   1   7
BRANCH   5   9
ATOM      9  S   UNL     1      -0.504   1.059  -1.200  1.00  0.00     0.246 S 
ATOM     10  O   UNL     1      -0.127   1.865  -0.054  1.00  0.00    -0.207 OA
ATOM     11  O   UNL     1      -0.676   1.665  -2.503  1.00  0.00    -0.207 OA
BRANCH   9  12
ATOM     12  N   UNL     1       0.662  -0.175  -1.313  1.00  0.00    -0.194 NA
ATOM     13  C   UNL     1       0.964  -0.918  -0.054  1.00  0.00     0.124 C 
ATOM     14  C   UNL     1       1.873   0.214  -2.106  1.00  0.00     0.124 C 
ATOM     15  C   UNL     1       2.270  -0.447   0.602  1.00  0.00     0.136 C 
ATOM     16  C   UNL     1       3.088  -0.640  -1.730  1.00  0.00     0.136 C 
ATOM     17  N   UNL     1       3.423  -0.476  -0.310  1.00  0.00    -0.333 N 
ATOM     18  C   UNL     1       4.655   0.117   0.017  1.00  0.00     0.289 C 
ATOM     19  O   UNL     1       5.441   0.455  -0.869  1.00  0.00    -0.265 OA
BRANCH  18  20
ATOM     20  C   UNL     1       4.971   0.310   1.422  1.00  0.00     0.191 A 
ATOM     21  C   UNL     1       4.852  -0.497   2.541  1.00  0.00     0.056 A 
ATOM     22  O   UNL     1       5.557   1.494   1.789  1.00  0.00    -0.459 OA
ATOM     23  C   UNL     1       5.360   0.241   3.638  1.00  0.00     0.043 A 
ATOM     24  C   UNL     1       5.776   1.445   3.126  1.00  0.00     0.196 A 
ENDBRANCH  18  20
ENDBRANCH   9  12
ENDBRANCH   5   9
BRANCH   4  25
ATOM     25  O   UNL     1      -1.844  -1.152  -2.783  1.00  0.00    -0.495 OA
ATOM     26  C   UNL     1      -2.527  -0.695  -3.953  1.00  0.00     0.278 C 
ENDBRANCH   4  25
TORSDOF 5
