REMARK SMILES COc1ccc(S(=O)(=O)N2CCc3cc(OC)c(OC)cc3C2)cc1
REMARK SMILES IDX 7 1 8 2 9 3 6 4 3 5 4 6 25 7 5 8 24 9 2 10 1 11 10 12 11 13
REMARK SMILES IDX 23 14 12 15 22 16 13 17 21 18 14 19 18 20 15 21 19 22 20 23
REMARK SMILES IDX 16 24 17 25
REMARK H PARENT
ROOT
ATOM      1  S   UNL     1      -2.170  -2.272  -0.767  1.00  0.00     0.243 S 
ATOM      2  O   UNL     1      -2.138  -2.304  -2.215  1.00  0.00    -0.207 OA
ATOM      3  O   UNL     1      -2.660  -3.400  -0.004  1.00  0.00    -0.207 OA
ENDROOT
BRANCH   1   4
ATOM      4  C   UNL     1      -3.101  -0.851  -0.256  1.00  0.00     0.082 A 
ATOM      5  C   UNL     1      -4.548   1.389   0.571  1.00  0.00     0.118 A 
ATOM      6  C   UNL     1      -3.902   0.577   1.510  1.00  0.00     0.048 A 
ATOM      7  C   UNL     1      -4.467   1.070  -0.787  1.00  0.00     0.048 A 
ATOM      8  C   UNL     1      -3.180  -0.546   1.104  1.00  0.00     0.025 A 
ATOM      9  C   UNL     1      -3.744  -0.052  -1.205  1.00  0.00     0.025 A 
BRANCH   5  10
ATOM     10  O   UNL     1      -5.217   2.455   1.107  1.00  0.00    -0.497 OA
ATOM     11  C   UNL     1      -5.936   3.286   0.204  1.00  0.00     0.278 C 
ENDBRANCH   5  10
ENDBRANCH   1   4
BRANCH   1  12
ATOM     12  N   UNL     1      -0.593  -1.907  -0.233  1.00  0.00    -0.193 NA
ATOM     13  C   UNL     1       0.334  -3.070  -0.281  1.00  0.00     0.107 C 
ATOM     14  C   UNL     1       0.021  -0.721  -0.891  1.00  0.00     0.138 C 
ATOM     15  C   UNL     1       1.564  -2.763   0.574  1.00  0.00     0.053 C 
ATOM     16  C   UNL     1       1.452  -0.462  -0.460  1.00  0.00    -0.026 A 
ATOM     17  C   UNL     1       2.200  -1.445   0.205  1.00  0.00    -0.038 A 
ATOM     18  C   UNL     1       2.056   0.767  -0.775  1.00  0.00     0.055 A 
ATOM     19  C   UNL     1       3.526  -1.179   0.580  1.00  0.00     0.054 A 
ATOM     20  C   UNL     1       3.382   1.030  -0.412  1.00  0.00     0.161 A 
ATOM     21  C   UNL     1       4.123   0.048   0.274  1.00  0.00     0.161 A 
BRANCH  20  22
ATOM     22  O   UNL     1       4.042   2.204  -0.681  1.00  0.00    -0.493 OA
ATOM     23  C   UNL     1       3.318   3.237  -1.333  1.00  0.00     0.278 C 
ENDBRANCH  20  22
BRANCH  21  24
ATOM     24  O   UNL     1       5.415   0.385   0.598  1.00  0.00    -0.493 OA
ATOM     25  C   UNL     1       6.189  -0.571   1.306  1.00  0.00     0.278 C 
ENDBRANCH  21  24
ENDBRANCH   1  12
TORSDOF 5
