REMARK SMILES COc1ccc(S(=O)(=O)N2CC[NH+](Cc3cccc(Cl)c3)CC2)cc1
REMARK SMILES IDX 10 1 11 2 12 3 13 4 22 5 23 6 7 8 8 9 9 10 6 11 3 12 4 13
REMARK SMILES IDX 25 14 5 15 24 16 2 17 1 18 14 19 15 20 16 21 21 22 17 23
REMARK SMILES IDX 19 24 18 25 20 26
REMARK H PARENT 13 7
ROOT
ATOM      1  N   UNL     1       0.696  -0.628  -0.507  1.00  0.00    -0.187 NA
ATOM      2  C   UNL     1       0.433  -0.528   0.962  1.00  0.00     0.164 C 
ATOM      3  C   UNL     1      -0.798   0.341   1.292  1.00  0.00     0.279 C 
ATOM      4  N   UNL     1      -2.021  -0.087   0.486  1.00  0.00    -0.329 N 
ATOM      5  C   UNL     1      -1.718  -0.174  -1.012  1.00  0.00     0.279 C 
ATOM      6  C   UNL     1      -0.511  -1.095  -1.254  1.00  0.00     0.164 C 
ATOM      7  H   UNL     1      -2.280  -1.032   0.794  1.00  0.00     0.348 HD
ENDROOT
BRANCH   1   8
ATOM      8  S   UNL     1       1.487   0.713  -1.231  1.00  0.00     0.243 S 
ATOM      9  O   UNL     1       1.603   0.434  -2.642  1.00  0.00    -0.207 OA
ATOM     10  O   UNL     1       0.772   1.877  -0.752  1.00  0.00    -0.207 OA
BRANCH   8  11
ATOM     11  C   UNL     1       3.097   0.667  -0.507  1.00  0.00     0.082 A 
ATOM     12  C   UNL     1       5.637   0.550   0.644  1.00  0.00     0.118 A 
ATOM     13  C   UNL     1       4.805   1.653   0.871  1.00  0.00     0.048 A 
ATOM     14  C   UNL     1       5.190  -0.494  -0.168  1.00  0.00     0.048 A 
ATOM     15  C   UNL     1       3.536   1.721   0.294  1.00  0.00     0.025 A 
ATOM     16  C   UNL     1       3.919  -0.437  -0.748  1.00  0.00     0.025 A 
BRANCH  12  17
ATOM     17  O   UNL     1       6.848   0.616   1.274  1.00  0.00    -0.497 OA
ATOM     18  C   UNL     1       7.785  -0.415   0.987  1.00  0.00     0.278 C 
ENDBRANCH  12  17
ENDBRANCH   8  11
ENDBRANCH   1   8
BRANCH   4  19
ATOM     19  C   UNL     1      -3.201   0.814   0.779  1.00  0.00     0.299 C 
BRANCH  19  20
ATOM     20  C   UNL     1      -4.506   0.257   0.279  1.00  0.00     0.008 A 
ATOM     21  C   UNL     1      -5.144   0.819  -0.838  1.00  0.00     0.009 A 
ATOM     22  C   UNL     1      -5.098  -0.848   0.913  1.00  0.00     0.030 A 
ATOM     23  C   UNL     1      -6.343   0.282  -1.315  1.00  0.00     0.002 A 
ATOM     24  C   UNL     1      -6.295  -1.379   0.429  1.00  0.00     0.041 A 
ATOM     25  C   UNL     1      -6.918  -0.820  -0.683  1.00  0.00     0.020 A 
ATOM     26  Cl  UNL     1      -6.995  -2.739   1.213  1.00  0.00    -0.084 Cl
ENDBRANCH  19  20
ENDBRANCH   4  19
TORSDOF 5
