REMARK SMILES N#Cc1ccccc1S(=O)(=O)Nc1ccc2c(c1)OCCO2
REMARK SMILES IDX 9 1 10 2 11 3 8 4 1 5 2 6 3 7 4 8 5 9 7 10 6 11 12 12 13 14
REMARK SMILES IDX 14 15 18 16 15 17 17 18 16 19 19 20 22 21 20 22 21 23
REMARK H PARENT 12 13
ROOT
ATOM      1  S   UNL     1      -1.400   2.352   0.441  1.00  0.00     0.263 S 
ATOM      2  O   UNL     1      -2.021   3.630   0.154  1.00  0.00    -0.201 OA
ATOM      3  O   UNL     1      -0.804   2.114   1.733  1.00  0.00    -0.201 OA
ENDROOT
BRANCH   1   4
ATOM      4  C   UNL     1      -2.608   1.095   0.100  1.00  0.00     0.105 A 
ATOM      5  N   UNL     1      -0.657  -1.066   2.224  1.00  0.00    -0.192 NA
ATOM      6  C   UNL     1      -1.485  -0.622   1.543  1.00  0.00     0.101 C 
ATOM      7  C   UNL     1      -2.544  -0.178   0.681  1.00  0.00     0.073 A 
ATOM      8  C   UNL     1      -3.559  -1.105   0.386  1.00  0.00     0.021 A 
ATOM      9  C   UNL     1      -4.617  -0.768  -0.461  1.00  0.00     0.001 A 
ATOM     10  C   UNL     1      -3.679   1.434  -0.746  1.00  0.00     0.023 A 
ATOM     11  C   UNL     1      -4.677   0.501  -1.026  1.00  0.00     0.002 A 
ENDBRANCH   1   4
BRANCH   1  12
ATOM     12  N   UNL     1      -0.267   2.123  -0.787  1.00  0.00    -0.279 N 
ATOM     13  H   UNL     1       0.093   3.014  -1.130  1.00  0.00     0.180 HD
BRANCH  12  14
ATOM     14  C   UNL     1       0.655   1.049  -0.685  1.00  0.00     0.053 A 
ATOM     15  C   UNL     1       0.458  -0.074  -1.490  1.00  0.00     0.031 A 
ATOM     16  C   UNL     1       1.747   1.121   0.178  1.00  0.00     0.077 A 
ATOM     17  C   UNL     1       1.341  -1.151  -1.407  1.00  0.00     0.052 A 
ATOM     18  C   UNL     1       2.635   0.050   0.250  1.00  0.00     0.163 A 
ATOM     19  C   UNL     1       2.417  -1.096  -0.523  1.00  0.00     0.161 A 
ATOM     20  O   UNL     1       3.696   0.188   1.108  1.00  0.00    -0.486 OA
ATOM     21  O   UNL     1       3.226  -2.202  -0.469  1.00  0.00    -0.486 OA
ATOM     22  C   UNL     1       4.681  -0.831   0.903  1.00  0.00     0.271 C 
ATOM     23  C   UNL     1       4.027  -2.190   0.720  1.00  0.00     0.271 C 
ENDBRANCH  12  14
ENDBRANCH   1  12
TORSDOF 3
