REMARK SMILES COc1cccc(NC(=O)CSc2ccc(-c3ccco3)nn2)c1
REMARK SMILES IDX 8 1 9 2 10 3 7 5 3 6 4 7 24 8 5 9 6 10 2 11 1 12 11 13 12 14
REMARK SMILES IDX 13 15 14 16 23 17 15 18 22 19 16 20 17 21 18 22 21 23 19 24
REMARK SMILES IDX 20 25
REMARK H PARENT 8 4
ROOT
ATOM      1  N   UNL     1      -2.376   0.415  -0.758  1.00  0.00    -0.325 N 
ATOM      2  C   UNL     1      -1.514   0.990  -1.681  1.00  0.00     0.234 C 
ATOM      3  O   UNL     1      -1.834   1.701  -2.630  1.00  0.00    -0.274 OA
ATOM      4  H   UNL     1      -1.932  -0.079   0.008  1.00  0.00     0.169 HD
ENDROOT
BRANCH   1   5
ATOM      5  C   UNL     1      -3.782   0.512  -0.707  1.00  0.00     0.044 A 
ATOM      6  C   UNL     1      -5.818  -0.063   0.502  1.00  0.00     0.120 A 
ATOM      7  C   UNL     1      -6.569   0.605  -0.465  1.00  0.00     0.046 A 
ATOM      8  C   UNL     1      -4.426  -0.108   0.377  1.00  0.00     0.072 A 
ATOM      9  C   UNL     1      -5.940   1.221  -1.544  1.00  0.00     0.006 A 
ATOM     10  C   UNL     1      -4.550   1.174  -1.665  1.00  0.00     0.026 A 
BRANCH   6  11
ATOM     11  O   UNL     1      -6.556  -0.625   1.508  1.00  0.00    -0.497 OA
ATOM     12  C   UNL     1      -5.844  -1.314   2.527  1.00  0.00     0.278 C 
ENDBRANCH   6  11
ENDBRANCH   1   5
BRANCH   2  13
ATOM     13  C   UNL     1      -0.059   0.610  -1.450  1.00  0.00     0.176 C 
BRANCH  13  14
ATOM     14  S   UNL     1       0.491   1.187   0.191  1.00  0.00    -0.095 SA
BRANCH  14  15
ATOM     15  C   UNL     1       2.191   0.666   0.143  1.00  0.00     0.119 A 
ATOM     16  C   UNL     1       3.099   1.190   1.048  1.00  0.00     0.040 A 
ATOM     17  N   UNL     1       2.568  -0.261  -0.761  1.00  0.00    -0.143 NA
ATOM     18  C   UNL     1       4.423   0.754   1.004  1.00  0.00     0.037 A 
ATOM     19  N   UNL     1       3.874  -0.693  -0.807  1.00  0.00    -0.146 NA
ATOM     20  C   UNL     1       4.784  -0.194   0.059  1.00  0.00     0.128 A 
BRANCH  20  21
ATOM     21  C   UNL     1       6.131  -0.720  -0.080  1.00  0.00     0.154 A 
ATOM     22  C   UNL     1       6.715  -1.640  -0.930  1.00  0.00     0.052 A 
ATOM     23  O   UNL     1       7.074  -0.243   0.790  1.00  0.00    -0.463 OA
ATOM     24  C   UNL     1       8.079  -1.728  -0.562  1.00  0.00     0.043 A 
ATOM     25  C   UNL     1       8.247  -0.859   0.490  1.00  0.00     0.196 A 
ENDBRANCH  20  21
ENDBRANCH  14  15
ENDBRANCH  13  14
ENDBRANCH   2  13
TORSDOF 6
