REMARK SMILES O=S(=O)(NCc1ccc2c(c1)OCO2)c1ccc(F)cc1
REMARK SMILES IDX 1 1 2 2 3 3 4 4 5 6 6 7 7 8 11 9 8 10 10 11 9 12 12 13 14 14
REMARK SMILES IDX 13 15 15 16 16 17 21 18 17 19 20 20 18 21 19 22
REMARK H PARENT 4 5
ROOT
ATOM      1  O   UNL     1      -2.224  -2.908   0.869  1.00  0.00    -0.207 OA
ATOM      2  S   UNL     1      -1.855  -1.996  -0.190  1.00  0.00     0.240 S 
ATOM      3  O   UNL     1      -1.658  -2.440  -1.551  1.00  0.00    -0.207 OA
ENDROOT
BRANCH   2   4
ATOM      4  N   UNL     1      -0.469  -1.214   0.307  1.00  0.00    -0.207 NA
ATOM      5  H   UNL     1      -0.286  -1.229   1.308  1.00  0.00     0.141 HD
BRANCH   4   6
ATOM      6  C   UNL     1       0.082  -0.135  -0.498  1.00  0.00     0.134 C 
BRANCH   6   7
ATOM      7  C   UNL     1       1.498   0.175  -0.078  1.00  0.00    -0.029 A 
ATOM      8  C   UNL     1       1.792   1.345   0.661  1.00  0.00     0.009 A 
ATOM      9  C   UNL     1       2.533  -0.721  -0.399  1.00  0.00     0.055 A 
ATOM     10  C   UNL     1       3.100   1.629   1.066  1.00  0.00     0.051 A 
ATOM     11  C   UNL     1       3.812  -0.413   0.015  1.00  0.00     0.166 A 
ATOM     12  C   UNL     1       4.087   0.730   0.727  1.00  0.00     0.165 A 
ATOM     13  O   UNL     1       4.922  -1.164  -0.211  1.00  0.00    -0.454 OA
ATOM     14  O   UNL     1       5.406   0.843   1.037  1.00  0.00    -0.454 OA
ATOM     15  C   UNL     1       5.929  -0.362   0.440  1.00  0.00     0.468 C 
ENDBRANCH   6   7
ENDBRANCH   4   6
ENDBRANCH   2   4
BRANCH   2  16
ATOM     16  C   UNL     1      -3.055  -0.682  -0.207  1.00  0.00     0.082 A 
ATOM     17  C   UNL     1      -3.622  -0.261   1.002  1.00  0.00     0.025 A 
ATOM     18  C   UNL     1      -3.444  -0.107  -1.423  1.00  0.00     0.025 A 
ATOM     19  C   UNL     1      -4.570   0.763   0.993  1.00  0.00     0.040 A 
ATOM     20  C   UNL     1      -4.392   0.916  -1.422  1.00  0.00     0.040 A 
ATOM     21  C   UNL     1      -4.944   1.343  -0.217  1.00  0.00     0.123 A 
ATOM     22  F   UNL     1      -5.853   2.326  -0.221  1.00  0.00    -0.207 F 
ENDBRANCH   2  16
TORSDOF 4
