REMARK SMILES O=C(CSc1ccc(-c2ccco2)nn1)Nc1ccccc1
REMARK SMILES IDX 3 1 2 2 1 3 16 4 17 6 18 7 22 8 19 9 21 10 20 11 4 12 5 13
REMARK SMILES IDX 6 14 15 15 7 16 14 17 8 18 9 19 10 20 13 21 11 22 12 23
REMARK H PARENT 16 5
ROOT
ATOM      1  C   UNL     1       0.594  -0.412   3.347  1.00  0.00     0.176 C 
ENDROOT
BRANCH   1   2
ATOM      2  C   UNL     1       0.931   0.868   2.587  1.00  0.00     0.234 C 
ATOM      3  O   UNL     1       0.335   1.910   2.852  1.00  0.00    -0.274 OA
ATOM      4  N   UNL     1       1.992   0.746   1.706  1.00  0.00    -0.325 N 
ATOM      5  H   UNL     1       2.384  -0.184   1.623  1.00  0.00     0.169 HD
BRANCH   4   6
ATOM      6  C   UNL     1       2.558   1.738   0.882  1.00  0.00     0.041 A 
ATOM      7  C   UNL     1       3.629   1.352   0.065  1.00  0.00     0.026 A 
ATOM      8  C   UNL     1       2.116   3.060   0.833  1.00  0.00     0.026 A 
ATOM      9  C   UNL     1       4.248   2.274  -0.784  1.00  0.00     0.002 A 
ATOM     10  C   UNL     1       2.735   3.983  -0.017  1.00  0.00     0.002 A 
ATOM     11  C   UNL     1       3.800   3.592  -0.824  1.00  0.00     0.000 A 
ENDBRANCH   4   6
ENDBRANCH   1   2
BRANCH   1  12
ATOM     12  S   UNL     1       0.978  -1.949   2.433  1.00  0.00    -0.095 SA
BRANCH  12  13
ATOM     13  C   UNL     1      -0.286  -1.923   1.179  1.00  0.00     0.119 A 
ATOM     14  C   UNL     1      -0.283  -2.888   0.184  1.00  0.00     0.040 A 
ATOM     15  N   UNL     1      -1.234  -0.968   1.211  1.00  0.00    -0.143 NA
ATOM     16  C   UNL     1      -1.277  -2.855  -0.793  1.00  0.00     0.037 A 
ATOM     17  N   UNL     1      -2.217  -0.932   0.248  1.00  0.00    -0.146 NA
ATOM     18  C   UNL     1      -2.236  -1.857  -0.736  1.00  0.00     0.128 A 
BRANCH  18  19
ATOM     19  C   UNL     1      -3.316  -1.721  -1.699  1.00  0.00     0.154 A 
ATOM     20  C   UNL     1      -4.356  -0.823  -1.848  1.00  0.00     0.052 A 
ATOM     21  O   UNL     1      -3.373  -2.653  -2.700  1.00  0.00    -0.463 OA
ATOM     22  C   UNL     1      -5.081  -1.225  -2.995  1.00  0.00     0.043 A 
ATOM     23  C   UNL     1      -4.444  -2.343  -3.477  1.00  0.00     0.196 A 
ENDBRANCH  18  19
ENDBRANCH  12  13
ENDBRANCH   1  12
TORSDOF 5
