REMARK SMILES O=S(=O)(c1ccccc1F)N1CCc2ccccc2C1
REMARK SMILES IDX 4 1 5 2 6 3 7 4 8 5 9 6 10 7 2 8 1 9 3 10 11 11 12 12 20 13
REMARK SMILES IDX 13 14 19 15 14 16 18 17 15 18 17 19 16 20
REMARK H PARENT
ROOT
ATOM      1  C   UNL     1       2.660   0.185   0.385  1.00  0.00     0.118 A 
ATOM      2  C   UNL     1       3.224  -0.627   1.374  1.00  0.00     0.025 A 
ATOM      3  C   UNL     1       4.416  -1.304   1.110  1.00  0.00     0.002 A 
ATOM      4  C   UNL     1       5.039  -1.166  -0.133  1.00  0.00     0.003 A 
ATOM      5  C   UNL     1       4.470  -0.350  -1.113  1.00  0.00     0.041 A 
ATOM      6  C   UNL     1       3.281   0.326  -0.849  1.00  0.00     0.143 A 
ATOM      7  F   UNL     1       2.755   1.091  -1.814  1.00  0.00    -0.206 F 
ENDROOT
BRANCH   1   8
ATOM      8  S   UNL     1       1.159   1.058   0.693  1.00  0.00     0.246 S 
ATOM      9  O   UNL     1       0.668   0.638   1.989  1.00  0.00    -0.207 OA
ATOM     10  O   UNL     1       1.420   2.456   0.425  1.00  0.00    -0.207 OA
BRANCH   8  11
ATOM     11  N   UNL     1       0.101   0.452  -0.481  1.00  0.00    -0.193 NA
ATOM     12  C   UNL     1      -0.241  -0.989  -0.459  1.00  0.00     0.107 C 
ATOM     13  C   UNL     1      -1.064   1.312  -0.798  1.00  0.00     0.138 C 
ATOM     14  C   UNL     1      -1.345  -1.310   0.546  1.00  0.00     0.052 C 
ATOM     15  C   UNL     1      -2.382   0.868  -0.204  1.00  0.00    -0.030 A 
ATOM     16  C   UNL     1      -2.528  -0.389   0.407  1.00  0.00    -0.042 A 
ATOM     17  C   UNL     1      -3.497   1.716  -0.300  1.00  0.00     0.005 A 
ATOM     18  C   UNL     1      -3.770  -0.763   0.942  1.00  0.00     0.004 A 
ATOM     19  C   UNL     1      -4.731   1.330   0.223  1.00  0.00     0.000 A 
ATOM     20  C   UNL     1      -4.867   0.092   0.845  1.00  0.00     0.000 A 
ENDBRANCH   8  11
ENDBRANCH   1   8
TORSDOF 2
