REMARK SMILES COc1ccc(S(=O)(=O)Nc2cccnc2)c(C)c1C
REMARK SMILES IDX 3 1 4 2 5 3 6 4 17 5 18 6 19 7 20 8 2 9 1 10 7 11 8 12 9 13
REMARK SMILES IDX 10 14 11 16 12 17 16 18 13 19 15 20 14 21
REMARK H PARENT 10 15
ROOT
ATOM      1  C   UNL     1      -2.477  -0.559   0.545  1.00  0.00     0.122 A 
ATOM      2  C   UNL     1      -1.475  -1.504   0.326  1.00  0.00     0.048 A 
ATOM      3  C   UNL     1      -0.395  -1.207  -0.504  1.00  0.00     0.026 A 
ATOM      4  C   UNL     1      -0.313   0.036  -1.143  1.00  0.00     0.091 A 
ATOM      5  C   UNL     1      -1.342   0.992  -0.987  1.00  0.00    -0.024 A 
ATOM      6  C   UNL     1      -1.313   2.303  -1.735  1.00  0.00     0.046 C 
ATOM      7  C   UNL     1      -2.407   0.703  -0.090  1.00  0.00    -0.005 A 
ATOM      8  C   UNL     1      -3.498   1.721   0.159  1.00  0.00     0.049 C 
ENDROOT
BRANCH   1   9
ATOM      9  O   UNL     1      -3.569  -0.771   1.347  1.00  0.00    -0.496 OA
ATOM     10  C   UNL     1      -3.655  -2.010   2.040  1.00  0.00     0.278 C 
ENDBRANCH   1   9
BRANCH   4  11
ATOM     11  S   UNL     1       1.142   0.379  -2.126  1.00  0.00     0.262 S 
ATOM     12  O   UNL     1       1.538   1.756  -1.929  1.00  0.00    -0.201 OA
ATOM     13  O   UNL     1       0.880  -0.157  -3.445  1.00  0.00    -0.201 OA
BRANCH  11  14
ATOM     14  N   UNL     1       2.343  -0.592  -1.471  1.00  0.00    -0.278 N 
ATOM     15  H   UNL     1       2.778  -1.201  -2.162  1.00  0.00     0.180 HD
BRANCH  14  16
ATOM     16  C   UNL     1       3.043  -0.289  -0.265  1.00  0.00     0.067 A 
ATOM     17  C   UNL     1       4.181  -1.044   0.022  1.00  0.00     0.030 A 
ATOM     18  C   UNL     1       2.625   0.616   0.708  1.00  0.00     0.137 A 
ATOM     19  C   UNL     1       4.866  -0.849   1.220  1.00  0.00     0.022 A 
ATOM     20  N   UNL     1       3.267   0.821   1.887  1.00  0.00    -0.263 NA
ATOM     21  C   UNL     1       4.377   0.088   2.112  1.00  0.00     0.111 A 
ENDBRANCH  14  16
ENDBRANCH  11  14
ENDBRANCH   4  11
TORSDOF 4
