REMARK SMILES Cc1ccc(S(=O)(=O)NCc2ccc3c(c2)OCO3)cc1C
REMARK SMILES IDX 6 1 7 2 8 3 5 4 2 5 3 6 21 7 4 8 20 9 1 10 22 11 9 12 10 14
REMARK SMILES IDX 11 15 12 16 16 17 13 18 15 19 14 20 17 21 19 22 18 23
REMARK H PARENT 9 13
ROOT
ATOM      1  S   UNL     1      -0.688  -0.462  -2.396  1.00  0.00     0.240 S 
ATOM      2  O   UNL     1      -0.724  -1.660  -3.205  1.00  0.00    -0.207 OA
ATOM      3  O   UNL     1      -0.717   0.859  -2.983  1.00  0.00    -0.207 OA
ENDROOT
BRANCH   1   4
ATOM      4  C   UNL     1      -2.002  -0.573  -1.206  1.00  0.00     0.082 A 
ATOM      5  C   UNL     1      -4.075  -0.763   0.662  1.00  0.00    -0.048 A 
ATOM      6  C   UNL     1      -3.388  -1.912   0.235  1.00  0.00     0.005 A 
ATOM      7  C   UNL     1      -3.724   0.496   0.130  1.00  0.00    -0.047 A 
ATOM      8  C   UNL     1      -2.357  -1.822  -0.698  1.00  0.00     0.022 A 
ATOM      9  C   UNL     1      -2.685   0.580  -0.810  1.00  0.00     0.025 A 
ATOM     10  C   UNL     1      -5.189  -0.904   1.665  1.00  0.00     0.044 C 
ATOM     11  C   UNL     1      -4.446   1.751   0.542  1.00  0.00     0.044 C 
ENDBRANCH   1   4
BRANCH   1  12
ATOM     12  N   UNL     1       0.678  -0.571  -1.439  1.00  0.00    -0.207 NA
ATOM     13  H   UNL     1       1.023  -1.516  -1.287  1.00  0.00     0.141 HD
BRANCH  12  14
ATOM     14  C   UNL     1       0.909   0.430  -0.408  1.00  0.00     0.134 C 
BRANCH  14  15
ATOM     15  C   UNL     1       2.326   0.350   0.107  1.00  0.00    -0.029 A 
ATOM     16  C   UNL     1       2.599  -0.187   1.387  1.00  0.00     0.009 A 
ATOM     17  C   UNL     1       3.389   0.786  -0.704  1.00  0.00     0.055 A 
ATOM     18  C   UNL     1       3.911  -0.278   1.863  1.00  0.00     0.051 A 
ATOM     19  C   UNL     1       4.671   0.683  -0.207  1.00  0.00     0.166 A 
ATOM     20  C   UNL     1       4.924   0.167   1.042  1.00  0.00     0.165 A 
ATOM     21  O   UNL     1       5.806   1.058  -0.853  1.00  0.00    -0.454 OA
ATOM     22  O   UNL     1       6.251   0.152   1.338  1.00  0.00    -0.454 OA
ATOM     23  C   UNL     1       6.804   0.718   0.131  1.00  0.00     0.468 C 
ENDBRANCH  14  15
ENDBRANCH  12  14
ENDBRANCH   1  12
TORSDOF 4
