REMARK SMILES CNS(=O)(=O)c1cc2c3c(cccc3c1)C(=O)NC2=O
REMARK SMILES IDX 3 1 4 2 5 3 2 4 1 5 6 7 7 8 15 9 8 10 14 11 9 12 19 13 13 14
REMARK SMILES IDX 10 15 18 16 20 17 12 18 11 19 16 20 17 21
REMARK H PARENT 2 6 18 22
ROOT
ATOM      1  S   UNL     1       3.152   0.651  -0.364  1.00  0.00     0.240 S 
ATOM      2  O   UNL     1       3.405   2.044  -0.660  1.00  0.00    -0.207 OA
ATOM      3  O   UNL     1       3.780  -0.414  -1.111  1.00  0.00    -0.207 OA
ENDROOT
BRANCH   1   4
ATOM      4  N   UNL     1       3.504   0.447   1.264  1.00  0.00    -0.214 NA
ATOM      5  C   UNL     1       3.748  -0.903   1.760  1.00  0.00     0.120 C 
ATOM      6  H   UNL     1       4.081   1.203   1.633  1.00  0.00     0.141 HD
ENDBRANCH   1   4
BRANCH   1   7
ATOM      7  C   UNL     1       1.394   0.411  -0.390  1.00  0.00     0.083 A 
ATOM      8  C   UNL     1       0.871  -0.841  -0.711  1.00  0.00     0.036 A 
ATOM      9  C   UNL     1       0.549   1.496  -0.133  1.00  0.00     0.030 A 
ATOM     10  C   UNL     1      -0.517  -1.008  -0.748  1.00  0.00     0.050 A 
ATOM     11  C   UNL     1      -0.845   1.333  -0.175  1.00  0.00    -0.015 A 
ATOM     12  C   UNL     1      -1.387   0.064  -0.485  1.00  0.00     0.007 A 
ATOM     13  C   UNL     1      -1.085  -2.337  -1.065  1.00  0.00     0.258 C 
ATOM     14  C   UNL     1      -1.711   2.408   0.085  1.00  0.00     0.009 A 
ATOM     15  C   UNL     1      -2.783  -0.088  -0.524  1.00  0.00     0.048 A 
ATOM     16  N   UNL     1      -2.457  -2.419  -1.111  1.00  0.00    -0.288 N 
ATOM     17  O   UNL     1      -0.368  -3.310  -1.261  1.00  0.00    -0.269 OA
ATOM     18  C   UNL     1      -3.096   2.237   0.043  1.00  0.00     0.001 A 
ATOM     19  C   UNL     1      -3.635   0.990  -0.261  1.00  0.00     0.014 A 
ATOM     20  C   UNL     1      -3.357  -1.413  -0.850  1.00  0.00     0.258 C 
ATOM     21  O   UNL     1      -4.566  -1.603  -0.879  1.00  0.00    -0.269 OA
ATOM     22  H   UNL     1      -2.846  -3.327  -1.320  1.00  0.00     0.173 HD
ENDBRANCH   1   7
TORSDOF 2
