REMARK SMILES Cn1c(=O)oc2cc(S(=O)(=O)Nc3ccccc3)ccc21
REMARK SMILES IDX 9 1 10 2 11 3 8 4 2 5 3 6 21 7 4 8 5 9 20 10 6 11 19 12 7 13
REMARK SMILES IDX 1 14 12 15 13 17 14 18 18 19 15 20 17 21 16 22
REMARK H PARENT 12 16
ROOT
ATOM      1  S   UNL     1      -0.968   1.916   2.047  1.00  0.00     0.262 S 
ATOM      2  O   UNL     1      -1.462   3.040   1.282  1.00  0.00    -0.201 OA
ATOM      3  O   UNL     1      -0.474   2.088   3.398  1.00  0.00    -0.201 OA
ENDROOT
BRANCH   1   4
ATOM      4  C   UNL     1       0.330   1.138   1.107  1.00  0.00     0.091 A 
ATOM      5  N   UNL     1       3.221  -0.500  -1.266  1.00  0.00    -0.277 N 
ATOM      6  C   UNL     1       2.798   0.008  -2.478  1.00  0.00     0.419 A 
ATOM      7  C   UNL     1       2.360  -0.052  -0.295  1.00  0.00     0.090 A 
ATOM      8  O   UNL     1       3.324  -0.184  -3.566  1.00  0.00    -0.223 OA
ATOM      9  O   UNL     1       1.650   0.799  -2.315  1.00  0.00    -0.408 OA
ATOM     10  C   UNL     1       2.330  -0.259   1.069  1.00  0.00     0.032 A 
ATOM     11  C   UNL     1       1.425   0.727  -0.949  1.00  0.00     0.157 A 
ATOM     12  C   UNL     1       1.294   0.354   1.782  1.00  0.00     0.025 A 
ATOM     13  C   UNL     1       0.396   1.348  -0.277  1.00  0.00     0.071 A 
ATOM     14  C   UNL     1       4.362  -1.341  -1.049  1.00  0.00     0.157 C 
ENDBRANCH   1   4
BRANCH   1  15
ATOM     15  N   UNL     1      -2.150   0.716   2.130  1.00  0.00    -0.280 N 
ATOM     16  H   UNL     1      -2.056   0.133   2.960  1.00  0.00     0.180 HD
BRANCH  15  17
ATOM     17  C   UNL     1      -2.626   0.111   0.935  1.00  0.00     0.049 A 
ATOM     18  C   UNL     1      -3.290   0.860  -0.035  1.00  0.00     0.027 A 
ATOM     19  C   UNL     1      -2.392  -1.250   0.729  1.00  0.00     0.027 A 
ATOM     20  C   UNL     1      -3.713   0.250  -1.218  1.00  0.00     0.002 A 
ATOM     21  C   UNL     1      -2.814  -1.858  -0.455  1.00  0.00     0.002 A 
ATOM     22  C   UNL     1      -3.473  -1.107  -1.428  1.00  0.00     0.000 A 
ENDBRANCH  15  17
ENDBRANCH   1  15
TORSDOF 3
