REMARK SMILES O=S(=O)(Nc1ccc2c(c1)OCO2)c1ccccc1
REMARK SMILES IDX 1 1 2 2 3 3 4 4 5 6 6 7 10 8 7 9 9 10 8 11 11 12 13 13 12 14
REMARK SMILES IDX 14 15 15 16 19 17 16 18 18 19 17 20
REMARK H PARENT 4 5
ROOT
ATOM      1  O   UNL     1       1.896  -3.150   1.588  1.00  0.00    -0.201 OA
ATOM      2  S   UNL     1       1.063  -1.966   1.547  1.00  0.00     0.261 S 
ATOM      3  O   UNL     1       0.518  -1.391   2.758  1.00  0.00    -0.201 OA
ENDROOT
BRANCH   2   4
ATOM      4  N   UNL     1      -0.193  -2.320   0.474  1.00  0.00    -0.279 N 
ATOM      5  H   UNL     1       0.061  -3.063  -0.175  1.00  0.00     0.180 HD
BRANCH   4   6
ATOM      6  C   UNL     1      -1.030  -1.271  -0.000  1.00  0.00     0.053 A 
ATOM      7  C   UNL     1      -1.011  -0.966  -1.375  1.00  0.00     0.031 A 
ATOM      8  C   UNL     1      -1.836  -0.544   0.879  1.00  0.00     0.077 A 
ATOM      9  C   UNL     1      -1.796   0.075  -1.882  1.00  0.00     0.053 A 
ATOM     10  C   UNL     1      -2.599   0.475   0.350  1.00  0.00     0.167 A 
ATOM     11  C   UNL     1      -2.578   0.777  -0.992  1.00  0.00     0.165 A 
ATOM     12  O   UNL     1      -3.437   1.286   1.050  1.00  0.00    -0.454 OA
ATOM     13  O   UNL     1      -3.399   1.815  -1.303  1.00  0.00    -0.454 OA
ATOM     14  C   UNL     1      -3.945   2.130  -0.005  1.00  0.00     0.468 C 
ENDBRANCH   4   6
ENDBRANCH   2   4
BRANCH   2  15
ATOM     15  C   UNL     1       1.975  -0.701   0.691  1.00  0.00     0.087 A 
ATOM     16  C   UNL     1       2.949  -1.068  -0.243  1.00  0.00     0.022 A 
ATOM     17  C   UNL     1       1.738   0.645   0.985  1.00  0.00     0.022 A 
ATOM     18  C   UNL     1       3.670  -0.076  -0.907  1.00  0.00     0.001 A 
ATOM     19  C   UNL     1       2.461   1.631   0.314  1.00  0.00     0.001 A 
ATOM     20  C   UNL     1       3.423   1.270  -0.632  1.00  0.00     0.000 A 
ENDBRANCH   2  15
TORSDOF 3
