REMARK SMILES Cc1cc(C)cc(NS(=O)(=O)c2cccs2)c1
REMARK SMILES IDX 8 1 7 3 2 4 3 5 17 6 4 7 6 8 1 9 5 10 9 11 10 12 11 13 12 14
REMARK SMILES IDX 13 15 16 16 14 17 15 18
REMARK H PARENT 8 2
ROOT
ATOM      1  N   UNL     1       0.366   2.303  -0.230  1.00  0.00    -0.279 N 
ATOM      2  H   UNL     1      -0.065   3.184  -0.512  1.00  0.00     0.180 HD
ENDROOT
BRANCH   1   3
ATOM      3  C   UNL     1      -0.588   1.268   0.026  1.00  0.00     0.049 A 
ATOM      4  C   UNL     1      -1.246  -0.677   1.311  1.00  0.00    -0.049 A 
ATOM      5  C   UNL     1      -2.353  -0.839   0.467  1.00  0.00     0.007 A 
ATOM      6  C   UNL     1      -0.357   0.378   1.074  1.00  0.00     0.030 A 
ATOM      7  C   UNL     1      -2.593   0.056  -0.585  1.00  0.00    -0.049 A 
ATOM      8  C   UNL     1      -1.694   1.105  -0.808  1.00  0.00     0.030 A 
ATOM      9  C   UNL     1      -0.980  -1.658   2.414  1.00  0.00     0.044 C 
ATOM     10  C   UNL     1      -3.759  -0.152  -1.507  1.00  0.00     0.044 C 
ENDBRANCH   1   3
BRANCH   1  11
ATOM     11  S   UNL     1       1.565   1.932  -1.379  1.00  0.00     0.271 S 
ATOM     12  O   UNL     1       0.919   1.395  -2.560  1.00  0.00    -0.200 OA
ATOM     13  O   UNL     1       2.426   3.092  -1.476  1.00  0.00    -0.200 OA
BRANCH  11  14
ATOM     14  C   UNL     1       2.573   0.609  -0.755  1.00  0.00     0.140 A 
ATOM     15  C   UNL     1       2.728  -0.704  -1.157  1.00  0.00     0.034 A 
ATOM     16  S   UNL     1       3.538   0.965   0.613  1.00  0.00    -0.131 S 
ATOM     17  C   UNL     1       3.648  -1.419  -0.337  1.00  0.00     0.013 A 
ATOM     18  C   UNL     1       4.164  -0.628   0.665  1.00  0.00     0.066 A 
ENDBRANCH  11  14
ENDBRANCH   1  11
TORSDOF 3
