REMARK SMILES COC(=O)CC[NH+]1CCN(S(=O)(=O)c2cccc(Br)c2)CC1
REMARK SMILES IDX 6 1 5 2 3 3 4 4 2 5 1 6 7 7 8 8 22 9 9 10 21 11 10 12 11 14
REMARK SMILES IDX 12 15 13 16 14 17 15 18 20 19 16 20 18 21 17 22 19 23
REMARK H PARENT 7 13
ROOT
ATOM      1  C   UNL     1      -2.397   1.871  -0.201  1.00  0.00     0.274 C 
ENDROOT
BRANCH   1   2
ATOM      2  C   UNL     1      -3.418   1.330  -1.198  1.00  0.00     0.184 C 
BRANCH   2   3
ATOM      3  C   UNL     1      -4.228   0.230  -0.571  1.00  0.00     0.311 C 
ATOM      4  O   UNL     1      -3.769  -0.504   0.300  1.00  0.00    -0.252 OA
BRANCH   3   5
ATOM      5  O   UNL     1      -5.459   0.153  -1.123  1.00  0.00    -0.469 OA
ATOM      6  C   UNL     1      -6.287  -0.891  -0.599  1.00  0.00     0.282 C 
ENDBRANCH   3   5
ENDBRANCH   2   3
ENDBRANCH   1   2
BRANCH   1   7
ATOM      7  N   UNL     1      -1.445   0.806   0.318  1.00  0.00    -0.332 N 
ATOM      8  C   UNL     1      -0.713   1.286   1.573  1.00  0.00     0.279 C 
ATOM      9  C   UNL     1      -0.477   0.278  -0.736  1.00  0.00     0.279 C 
ATOM     10  C   UNL     1       0.182   0.166   2.124  1.00  0.00     0.164 C 
ATOM     11  C   UNL     1       0.489  -0.771  -0.143  1.00  0.00     0.164 C 
ATOM     12  N   UNL     1       1.170  -0.300   1.103  1.00  0.00    -0.187 NA
ATOM     13  H   UNL     1      -2.040   0.007   0.620  1.00  0.00     0.348 HD
BRANCH  12  14
ATOM     14  S   UNL     1       2.505   0.753   0.889  1.00  0.00     0.243 S 
ATOM     15  O   UNL     1       2.063   1.744  -0.070  1.00  0.00    -0.207 OA
ATOM     16  O   UNL     1       2.971   1.137   2.200  1.00  0.00    -0.207 OA
BRANCH  14  17
ATOM     17  C   UNL     1       3.720  -0.287   0.141  1.00  0.00     0.083 A 
ATOM     18  C   UNL     1       4.213  -1.380   0.862  1.00  0.00     0.022 A 
ATOM     19  C   UNL     1       4.177  -0.011  -1.150  1.00  0.00     0.037 A 
ATOM     20  C   UNL     1       5.166  -2.213   0.278  1.00  0.00     0.003 A 
ATOM     21  C   UNL     1       5.127  -0.854  -1.722  1.00  0.00     0.019 A 
ATOM     22  C   UNL     1       5.622  -1.953  -1.017  1.00  0.00     0.016 A 
ATOM     23  Br  UNL     1       5.747  -0.508  -3.473  1.00  0.00    -0.051 Br
ENDBRANCH  14  17
ENDBRANCH  12  14
ENDBRANCH   1   7
TORSDOF 6
