REMARK SMILES COc1ccc(C)cc1S(=O)(=O)Nc1ccccc1
REMARK SMILES IDX 3 1 4 2 5 3 6 4 7 5 8 6 9 7 2 8 1 9 10 10 11 11 12 12 13 13
REMARK SMILES IDX 14 15 15 16 19 17 16 18 18 19 17 20
REMARK H PARENT 13 14
ROOT
ATOM      1  C   UNL     1       1.688  -0.413  -0.675  1.00  0.00     0.139 A 
ATOM      2  C   UNL     1       3.016  -0.188  -1.055  1.00  0.00     0.048 A 
ATOM      3  C   UNL     1       3.917   0.431  -0.180  1.00  0.00     0.007 A 
ATOM      4  C   UNL     1       3.514   0.831   1.097  1.00  0.00    -0.049 A 
ATOM      5  C   UNL     1       4.475   1.517   2.022  1.00  0.00     0.044 C 
ATOM      6  C   UNL     1       2.183   0.630   1.476  1.00  0.00     0.029 A 
ATOM      7  C   UNL     1       1.280   0.013   0.595  1.00  0.00     0.129 A 
ENDROOT
BRANCH   1   8
ATOM      8  O   UNL     1       0.755  -0.996  -1.484  1.00  0.00    -0.495 OA
ATOM      9  C   UNL     1       1.219  -1.694  -2.632  1.00  0.00     0.278 C 
ENDBRANCH   1   8
BRANCH   7  10
ATOM     10  S   UNL     1      -0.395  -0.235   1.139  1.00  0.00     0.265 S 
ATOM     11  O   UNL     1      -0.551   0.456   2.406  1.00  0.00    -0.201 OA
ATOM     12  O   UNL     1      -0.703  -1.643   1.013  1.00  0.00    -0.201 OA
BRANCH  10  13
ATOM     13  N   UNL     1      -1.277   0.702   0.015  1.00  0.00    -0.280 N 
ATOM     14  H   UNL     1      -1.184   1.674   0.311  1.00  0.00     0.180 HD
BRANCH  13  15
ATOM     15  C   UNL     1      -2.657   0.333  -0.093  1.00  0.00     0.049 A 
ATOM     16  C   UNL     1      -3.615   0.944   0.717  1.00  0.00     0.027 A 
ATOM     17  C   UNL     1      -3.022  -0.695  -0.961  1.00  0.00     0.027 A 
ATOM     18  C   UNL     1      -4.950   0.546   0.629  1.00  0.00     0.002 A 
ATOM     19  C   UNL     1      -4.356  -1.091  -1.047  1.00  0.00     0.002 A 
ATOM     20  C   UNL     1      -5.321  -0.468  -0.255  1.00  0.00     0.000 A 
ENDBRANCH  13  15
ENDBRANCH  10  13
ENDBRANCH   7  10
TORSDOF 4
