REMARK SMILES Cc1ncc([N+](=O)[O-])n1S(=O)(=O)c1cc(Br)ccc1Br
REMARK SMILES IDX 1 1 2 2 3 3 4 4 5 5 9 6 10 7 11 8 12 9 13 10 14 11 19 12
REMARK SMILES IDX 15 13 18 14 17 15 20 16 16 17 6 18 7 19 8 20
REMARK H PARENT
ROOT
ATOM      1  C   UNL     1      -2.579   2.471   0.109  1.00  0.00     0.119 C 
ATOM      2  C   UNL     1      -2.456   1.082  -0.412  1.00  0.00     0.210 A 
ATOM      3  N   UNL     1      -3.278   0.569  -1.316  1.00  0.00    -0.212 NA
ATOM      4  C   UNL     1      -2.934  -0.750  -1.448  1.00  0.00     0.219 A 
ATOM      5  C   UNL     1      -1.857  -1.031  -0.652  1.00  0.00     0.358 A 
ATOM      6  N   UNL     1      -1.516   0.137  -0.029  1.00  0.00    -0.095 N 
ENDROOT
BRANCH   6   7
ATOM      7  S   UNL     1      -0.398   0.303   1.228  1.00  0.00     0.338 S 
ATOM      8  O   UNL     1      -0.442   1.681   1.673  1.00  0.00    -0.178 OA
ATOM      9  O   UNL     1      -0.754  -0.781   2.126  1.00  0.00    -0.178 OA
BRANCH   7  10
ATOM     10  C   UNL     1       1.245   0.029   0.628  1.00  0.00     0.124 A 
ATOM     11  C   UNL     1       2.067  -0.800   1.415  1.00  0.00     0.041 A 
ATOM     12  C   UNL     1       1.757   0.612  -0.534  1.00  0.00     0.040 A 
ATOM     13  C   UNL     1       3.375  -1.067   1.019  1.00  0.00     0.019 A 
ATOM     14  C   UNL     1       3.078   0.333  -0.918  1.00  0.00     0.018 A 
ATOM     15  C   UNL     1       3.884  -0.507  -0.147  1.00  0.00     0.017 A 
ATOM     16  Br  UNL     1       0.816   1.813  -1.655  1.00  0.00    -0.049 Br
ATOM     17  Br  UNL     1       4.466  -2.192   2.074  1.00  0.00    -0.051 Br
ENDBRANCH   7  10
ENDBRANCH   6   7
BRANCH   5  18
ATOM     18  N   UNL     1      -1.228  -2.274  -0.462  1.00  0.00    -0.025 N 
ATOM     19  O   UNL     1      -1.964  -3.258  -0.361  1.00  0.00    -0.358 OA
ATOM     20  O   UNL     1       0.004  -2.276  -0.481  1.00  0.00    -0.358 OA
ENDBRANCH   5  18
TORSDOF 3
