REMARK SMILES COc1cccc(C[NH+]2CCN(S(=O)(=O)c3ccc(Br)cc3)CC2)c1
REMARK SMILES IDX 9 1 10 2 11 3 12 4 23 5 24 6 8 8 7 9 3 10 4 11 25 12 5 13
REMARK SMILES IDX 6 14 2 15 1 16 13 17 14 18 15 19 16 20 17 21 22 22 18 23
REMARK SMILES IDX 21 24 19 25 20 26
REMARK H PARENT 9 7
ROOT
ATOM      1  N   UNL     1      -0.751   0.826  -1.194  1.00  0.00    -0.329 N 
ATOM      2  C   UNL     1       0.057   0.709  -2.469  1.00  0.00     0.279 C 
ATOM      3  C   UNL     1       1.575   0.607  -2.170  1.00  0.00     0.164 C 
ATOM      4  N   UNL     1       1.942   1.184  -0.831  1.00  0.00    -0.187 NA
ATOM      5  C   UNL     1       1.119   2.400  -0.524  1.00  0.00     0.164 C 
ATOM      6  C   UNL     1      -0.380   2.062  -0.377  1.00  0.00     0.279 C 
ATOM      7  H   UNL     1      -0.455   0.022  -0.602  1.00  0.00     0.348 HD
ENDROOT
BRANCH   1   8
ATOM      8  C   UNL     1      -2.230   0.657  -1.406  1.00  0.00     0.299 C 
BRANCH   8   9
ATOM      9  C   UNL     1      -3.013   0.575  -0.126  1.00  0.00     0.010 A 
ATOM     10  C   UNL     1      -3.552  -0.603   1.944  1.00  0.00     0.119 A 
ATOM     11  C   UNL     1      -4.433   0.418   2.292  1.00  0.00     0.046 A 
ATOM     12  C   UNL     1      -2.849  -0.520   0.738  1.00  0.00     0.056 A 
ATOM     13  C   UNL     1      -4.611   1.510   1.439  1.00  0.00     0.004 A 
ATOM     14  C   UNL     1      -3.907   1.591   0.237  1.00  0.00     0.010 A 
BRANCH  10  15
ATOM     15  O   UNL     1      -3.282  -1.723   2.678  1.00  0.00    -0.497 OA
ATOM     16  C   UNL     1      -3.986  -1.875   3.906  1.00  0.00     0.278 C 
ENDBRANCH  10  15
ENDBRANCH   8   9
ENDBRANCH   1   8
BRANCH   4  17
ATOM     17  S   UNL     1       2.009   0.053   0.459  1.00  0.00     0.243 S 
ATOM     18  O   UNL     1       0.812  -0.751   0.281  1.00  0.00    -0.207 OA
ATOM     19  O   UNL     1       2.243   0.794   1.673  1.00  0.00    -0.207 OA
BRANCH  17  20
ATOM     20  C   UNL     1       3.439  -0.912   0.085  1.00  0.00     0.082 A 
ATOM     21  C   UNL     1       4.671  -0.268  -0.066  1.00  0.00     0.023 A 
ATOM     22  C   UNL     1       3.330  -2.298  -0.063  1.00  0.00     0.023 A 
ATOM     23  C   UNL     1       5.805  -1.020  -0.378  1.00  0.00     0.017 A 
ATOM     24  C   UNL     1       4.468  -3.045  -0.374  1.00  0.00     0.017 A 
ATOM     25  C   UNL     1       5.698  -2.404  -0.533  1.00  0.00     0.018 A 
ATOM     26  Br  UNL     1       7.234  -3.419  -0.958  1.00  0.00    -0.051 Br
ENDBRANCH  17  20
ENDBRANCH   4  17
TORSDOF 5
