REMARK SMILES Cc1ccc(NS(=O)(=O)c2ccccc2[N+](=O)[O-])cc1C
REMARK SMILES IDX 7 1 8 2 9 3 6 4 5 6 2 7 3 8 20 9 4 10 19 11 1 12 21 13 10 14
REMARK SMILES IDX 11 15 15 16 12 17 14 18 13 19 16 20 17 21 18 22
REMARK H PARENT 6 5
ROOT
ATOM      1  S   UNL     1      -1.557   1.724   0.273  1.00  0.00     0.268 S 
ATOM      2  O   UNL     1      -0.990   2.282  -0.930  1.00  0.00    -0.201 OA
ATOM      3  O   UNL     1      -2.310   2.521   1.218  1.00  0.00    -0.201 OA
ENDROOT
BRANCH   1   4
ATOM      4  N   UNL     1      -0.352   1.016   1.208  1.00  0.00    -0.279 N 
ATOM      5  H   UNL     1      -0.352   1.419   2.146  1.00  0.00     0.180 HD
BRANCH   4   6
ATOM      6  C   UNL     1       0.910   0.577   0.697  1.00  0.00     0.049 A 
ATOM      7  C   UNL     1       3.414  -0.476  -0.087  1.00  0.00    -0.048 A 
ATOM      8  C   UNL     1       2.375  -0.317  -1.013  1.00  0.00     0.006 A 
ATOM      9  C   UNL     1       3.189  -0.127   1.257  1.00  0.00    -0.046 A 
ATOM     10  C   UNL     1       1.132   0.191  -0.623  1.00  0.00     0.027 A 
ATOM     11  C   UNL     1       1.934   0.386   1.632  1.00  0.00     0.030 A 
ATOM     12  C   UNL     1       4.737  -1.023  -0.548  1.00  0.00     0.044 C 
ATOM     13  C   UNL     1       4.261  -0.289   2.300  1.00  0.00     0.044 C 
ENDBRANCH   4   6
ENDBRANCH   1   4
BRANCH   1  14
ATOM     14  C   UNL     1      -2.631   0.393  -0.191  1.00  0.00     0.165 A 
ATOM     15  C   UNL     1      -2.223  -0.943  -0.079  1.00  0.00     0.029 A 
ATOM     16  C   UNL     1      -3.943   0.663  -0.591  1.00  0.00     0.289 A 
ATOM     17  C   UNL     1      -3.111  -1.979  -0.390  1.00  0.00     0.002 A 
ATOM     18  C   UNL     1      -4.839  -0.372  -0.896  1.00  0.00     0.087 A 
ATOM     19  C   UNL     1      -4.415  -1.696  -0.797  1.00  0.00     0.007 A 
BRANCH  16  20
ATOM     20  N   UNL     1      -4.439   2.020  -0.721  1.00  0.00     0.064 N 
ATOM     21  O   UNL     1      -5.419   2.325  -0.030  1.00  0.00    -0.258 OA
ATOM     22  O   UNL     1      -3.891   2.741  -1.562  1.00  0.00    -0.258 OA
ENDBRANCH  16  20
ENDBRANCH   1  14
TORSDOF 4
