REMARK SMILES CCC(CC)C(=O)N1N=C(c2ccc(NS(C)(=O)=O)cc2)C[C@@H]1c1ccc(C)cc1
REMARK SMILES IDX 8 1 9 2 10 3 22 4 23 5 6 6 7 7 3 8 2 9 1 10 4 11 5 12 24 13
REMARK SMILES IDX 25 14 30 15 26 16 29 17 27 18 28 19 11 20 12 21 21 22 13 23
REMARK SMILES IDX 20 24 14 25 15 26 16 28 18 29 19 30 17 31
REMARK H PARENT 15 27
ROOT
ATOM      1  N   UNL     1      -1.459  -0.386  -0.788  1.00  0.00    -0.225 N 
ATOM      2  N   UNL     1      -0.278  -0.885  -0.299  1.00  0.00    -0.174 NA
ATOM      3  C   UNL     1       0.676  -0.253  -0.918  1.00  0.00     0.071 C 
ATOM      4  C   UNL     1       0.219   0.726  -1.971  1.00  0.00     0.091 C 
ATOM      5  C   UNL     1      -1.275   0.762  -1.671  1.00  0.00     0.147 C 
ENDROOT
BRANCH   1   6
ATOM      6  C   UNL     1      -2.700  -0.925  -0.492  1.00  0.00     0.246 C 
ATOM      7  O   UNL     1      -3.738  -0.487  -0.994  1.00  0.00    -0.273 OA
BRANCH   6   8
ATOM      8  C   UNL     1      -2.711  -2.132   0.457  1.00  0.00     0.080 C 
BRANCH   8   9
ATOM      9  C   UNL     1      -4.088  -2.252   1.139  1.00  0.00     0.010 C 
ATOM     10  C   UNL     1      -4.143  -3.333   2.208  1.00  0.00     0.005 C 
ENDBRANCH   8   9
BRANCH   8  11
ATOM     11  C   UNL     1      -2.258  -3.409  -0.280  1.00  0.00     0.010 C 
ATOM     12  C   UNL     1      -3.232  -3.915  -1.337  1.00  0.00     0.005 C 
ENDBRANCH   8  11
ENDBRANCH   6   8
ENDBRANCH   1   6
BRANCH   5  13
ATOM     13  C   UNL     1      -1.685   2.081  -1.034  1.00  0.00    -0.023 A 
ATOM     14  C   UNL     1      -1.320   2.419   0.279  1.00  0.00     0.006 A 
ATOM     15  C   UNL     1      -2.422   3.011  -1.782  1.00  0.00     0.006 A 
ATOM     16  C   UNL     1      -1.685   3.651   0.828  1.00  0.00     0.004 A 
ATOM     17  C   UNL     1      -2.787   4.243  -1.231  1.00  0.00     0.004 A 
ATOM     18  C   UNL     1      -2.432   4.567   0.082  1.00  0.00    -0.051 A 
ATOM     19  C   UNL     1      -2.801   5.900   0.662  1.00  0.00     0.044 C 
ENDBRANCH   5  13
BRANCH   3  20
ATOM     20  C   UNL     1       2.112  -0.496  -0.646  1.00  0.00    -0.002 A 
ATOM     21  C   UNL     1       2.468  -1.388   0.373  1.00  0.00     0.012 A 
ATOM     22  C   UNL     1       3.115   0.136  -1.387  1.00  0.00     0.012 A 
ATOM     23  C   UNL     1       3.814  -1.640   0.654  1.00  0.00     0.027 A 
ATOM     24  C   UNL     1       4.461  -0.118  -1.102  1.00  0.00     0.027 A 
ATOM     25  C   UNL     1       4.812  -0.997  -0.078  1.00  0.00     0.048 A 
BRANCH  25  26
ATOM     26  N   UNL     1       6.172  -1.268   0.235  1.00  0.00    -0.284 N 
ATOM     27  H   UNL     1       6.384  -2.144   0.713  1.00  0.00     0.180 HD
BRANCH  26  28
ATOM     28  S   UNL     1       7.198  -0.018   0.707  1.00  0.00     0.229 S 
ATOM     29  O   UNL     1       8.438  -0.658   1.093  1.00  0.00    -0.207 OA
ATOM     30  O   UNL     1       7.173   1.039  -0.278  1.00  0.00    -0.207 OA
ATOM     31  C   UNL     1       6.418   0.573   2.197  1.00  0.00     0.183 C 
ENDBRANCH  26  28
ENDBRANCH  25  26
ENDBRANCH   3  20
TORSDOF 8
