REMARK SMILES COc1ccc(S(=O)(=O)Nc2ccc3c(c2)OCO3)cc1C
REMARK SMILES IDX 3 1 4 2 5 3 6 4 20 5 21 6 22 7 2 8 1 9 7 10 8 11 9 12 10 13
REMARK SMILES IDX 11 15 12 16 16 17 13 18 15 19 14 20 17 21 19 22 18 23
REMARK H PARENT 10 14
ROOT
ATOM      1  C   UNL     1      -2.646   0.364   0.471  1.00  0.00     0.121 A 
ATOM      2  C   UNL     1      -1.586  -0.008   1.306  1.00  0.00     0.048 A 
ATOM      3  C   UNL     1      -0.699  -1.015   0.919  1.00  0.00     0.026 A 
ATOM      4  C   UNL     1      -0.864  -1.643  -0.315  1.00  0.00     0.088 A 
ATOM      5  C   UNL     1      -1.927  -1.297  -1.153  1.00  0.00     0.029 A 
ATOM      6  C   UNL     1      -2.821  -0.287  -0.767  1.00  0.00    -0.008 A 
ATOM      7  C   UNL     1      -3.963   0.085  -1.674  1.00  0.00     0.048 C 
ENDROOT
BRANCH   1   8
ATOM      8  O   UNL     1      -3.564   1.339   0.760  1.00  0.00    -0.496 OA
ATOM      9  C   UNL     1      -3.446   1.998   2.015  1.00  0.00     0.278 C 
ENDBRANCH   1   8
BRANCH   4  10
ATOM     10  S   UNL     1       0.265  -2.924  -0.817  1.00  0.00     0.261 S 
ATOM     11  O   UNL     1      -0.461  -3.828  -1.685  1.00  0.00    -0.201 OA
ATOM     12  O   UNL     1       0.952  -3.406   0.361  1.00  0.00    -0.201 OA
BRANCH  10  13
ATOM     13  N   UNL     1       1.355  -2.097  -1.809  1.00  0.00    -0.279 N 
ATOM     14  H   UNL     1       1.056  -2.098  -2.782  1.00  0.00     0.180 HD
BRANCH  13  15
ATOM     15  C   UNL     1       2.015  -0.939  -1.310  1.00  0.00     0.053 A 
ATOM     16  C   UNL     1       1.732   0.305  -1.907  1.00  0.00     0.031 A 
ATOM     17  C   UNL     1       2.901  -1.027  -0.234  1.00  0.00     0.077 A 
ATOM     18  C   UNL     1       2.332   1.474  -1.428  1.00  0.00     0.053 A 
ATOM     19  C   UNL     1       3.477   0.142   0.215  1.00  0.00     0.167 A 
ATOM     20  C   UNL     1       3.200   1.358  -0.365  1.00  0.00     0.165 A 
ATOM     21  O   UNL     1       4.357   0.249   1.246  1.00  0.00    -0.454 OA
ATOM     22  O   UNL     1       3.869   2.381   0.230  1.00  0.00    -0.454 OA
ATOM     23  C   UNL     1       4.609   1.670   1.245  1.00  0.00     0.468 C 
ENDBRANCH  13  15
ENDBRANCH  10  13
ENDBRANCH   4  10
TORSDOF 4
