REMARK SMILES CNc1ncnc2ccc(-c3ccccc3OC)cc12
REMARK SMILES IDX 3 1 4 2 5 3 6 4 7 5 8 6 9 7 10 8 19 9 20 10 2 11 1 12 11 14
REMARK SMILES IDX 12 15 16 16 13 17 15 18 14 19 17 20 18 21
REMARK H PARENT 2 13
ROOT
ATOM      1  C   UNL     1       3.131   0.047  -0.679  1.00  0.00     0.137 A 
ATOM      2  N   UNL     1       4.193  -0.664  -1.097  1.00  0.00    -0.219 NA
ATOM      3  C   UNL     1       4.034  -1.989  -1.176  1.00  0.00     0.224 A 
ATOM      4  N   UNL     1       2.925  -2.675  -0.881  1.00  0.00    -0.236 NA
ATOM      5  C   UNL     1       1.882  -1.963  -0.448  1.00  0.00     0.076 A 
ATOM      6  C   UNL     1       0.712  -2.632  -0.116  1.00  0.00     0.030 A 
ATOM      7  C   UNL     1      -0.418  -1.956   0.357  1.00  0.00     0.011 A 
ATOM      8  C   UNL     1      -0.405  -0.569   0.518  1.00  0.00    -0.014 A 
ATOM      9  C   UNL     1       0.774   0.113   0.183  1.00  0.00     0.023 A 
ATOM     10  C   UNL     1       1.919  -0.569  -0.310  1.00  0.00     0.043 A 
ENDROOT
BRANCH   1  11
ATOM     11  N   UNL     1       3.247   1.454  -0.585  1.00  0.00    -0.373 N 
ATOM     12  C   UNL     1       4.532   1.987  -1.010  1.00  0.00     0.141 C 
ATOM     13  H   UNL     1       2.481   1.871  -1.107  1.00  0.00     0.161 HD
ENDBRANCH   1  11
BRANCH   8  14
ATOM     14  C   UNL     1      -1.579   0.154   1.040  1.00  0.00     0.024 A 
ATOM     15  C   UNL     1      -1.470   0.841   2.265  1.00  0.00     0.012 A 
ATOM     16  C   UNL     1      -2.816   0.185   0.356  1.00  0.00     0.126 A 
ATOM     17  C   UNL     1      -2.552   1.536   2.803  1.00  0.00     0.001 A 
ATOM     18  C   UNL     1      -3.898   0.885   0.907  1.00  0.00     0.047 A 
ATOM     19  C   UNL     1      -3.765   1.557   2.124  1.00  0.00     0.004 A 
BRANCH  16  20
ATOM     20  O   UNL     1      -2.865  -0.487  -0.841  1.00  0.00    -0.496 OA
ATOM     21  C   UNL     1      -4.086  -0.461  -1.566  1.00  0.00     0.278 C 
ENDBRANCH  16  20
ENDBRANCH   8  14
TORSDOF 3
