REMARK SMILES Cc1cccc(CNc2ccnc(-c3cccc(C#N)c3)n2)c1
REMARK SMILES IDX 7 1 6 2 2 3 3 4 23 5 4 6 5 7 1 8 8 9 9 11 10 12 22 13 11 14
REMARK SMILES IDX 13 15 12 16 14 17 15 18 21 19 16 20 18 21 17 22 19 23 20 24
REMARK H PARENT 8 10
ROOT
ATOM      1  C   UNL     1      -1.176   0.102   0.267  1.00  0.00     0.150 C 
ENDROOT
BRANCH   1   2
ATOM      2  C   UNL     1      -2.664  -0.001   0.515  1.00  0.00    -0.029 A 
ATOM      3  C   UNL     1      -4.873  -0.757  -0.200  1.00  0.00    -0.051 A 
ATOM      4  C   UNL     1      -5.427  -0.193   0.954  1.00  0.00     0.003 A 
ATOM      5  C   UNL     1      -3.490  -0.666  -0.406  1.00  0.00     0.009 A 
ATOM      6  C   UNL     1      -4.617   0.475   1.873  1.00  0.00     0.001 A 
ATOM      7  C   UNL     1      -3.243   0.575   1.653  1.00  0.00     0.005 A 
ATOM      8  C   UNL     1      -5.737  -1.501  -1.174  1.00  0.00     0.044 C 
ENDBRANCH   1   2
BRANCH   1   9
ATOM      9  N   UNL     1      -0.947   1.005  -0.855  1.00  0.00    -0.366 N 
ATOM     10  H   UNL     1      -1.453   1.877  -0.733  1.00  0.00     0.162 HD
BRANCH   9  11
ATOM     11  C   UNL     1       0.403   1.260  -1.141  1.00  0.00     0.130 A 
ATOM     12  C   UNL     1       0.694   2.154  -2.152  1.00  0.00     0.067 A 
ATOM     13  N   UNL     1       1.374   0.603  -0.487  1.00  0.00    -0.211 NA
ATOM     14  C   UNL     1       2.023   2.357  -2.435  1.00  0.00     0.117 A 
ATOM     15  C   UNL     1       2.651   0.862  -0.831  1.00  0.00     0.161 A 
ATOM     16  N   UNL     1       3.020   1.733  -1.789  1.00  0.00    -0.236 NA
BRANCH  15  17
ATOM     17  C   UNL     1       3.717   0.143  -0.102  1.00  0.00     0.021 A 
ATOM     18  C   UNL     1       5.080   0.362  -0.384  1.00  0.00     0.012 A 
ATOM     19  C   UNL     1       3.413  -0.794   0.907  1.00  0.00     0.031 A 
ATOM     20  C   UNL     1       6.091  -0.316   0.304  1.00  0.00     0.002 A 
ATOM     21  C   UNL     1       4.421  -1.477   1.601  1.00  0.00     0.053 A 
ATOM     22  C   UNL     1       5.762  -1.235   1.297  1.00  0.00     0.019 A 
ATOM     23  C   UNL     1       4.075  -2.421   2.623  1.00  0.00     0.099 C 
ATOM     24  N   UNL     1       3.798  -3.184   3.453  1.00  0.00    -0.192 NA
ENDBRANCH  15  17
ENDBRANCH   9  11
ENDBRANCH   1   9
TORSDOF 4
