REMARK SMILES C=CCSc1nc(N)c(C#N)c(-c2ccccc2)c1C#N
REMARK SMILES IDX 5 1 6 2 7 3 9 4 10 5 11 6 12 7 19 8 20 9 21 10 4 11 3 12
REMARK SMILES IDX 2 13 1 14 8 15 13 18 14 19 18 20 15 21 17 22 16 23
REMARK H PARENT 8 16 8 17
ROOT
ATOM      1  C   UNL     1       1.494   0.477  -1.354  1.00  0.00     0.117 A 
ATOM      2  N   UNL     1       1.872  -0.791  -1.644  1.00  0.00    -0.222 NA
ATOM      3  C   UNL     1       1.057  -1.816  -1.340  1.00  0.00     0.143 A 
ATOM      4  C   UNL     1      -0.185  -1.610  -0.738  1.00  0.00     0.103 A 
ATOM      5  C   UNL     1      -1.018  -2.737  -0.432  1.00  0.00     0.104 C 
ATOM      6  N   UNL     1      -1.657  -3.677  -0.200  1.00  0.00    -0.192 NA
ATOM      7  C   UNL     1      -0.599  -0.293  -0.442  1.00  0.00     0.024 A 
ATOM      8  C   UNL     1       0.267   0.774  -0.766  1.00  0.00     0.094 A 
ATOM      9  C   UNL     1      -0.109   2.131  -0.497  1.00  0.00     0.103 C 
ATOM     10  N   UNL     1      -0.400   3.230  -0.263  1.00  0.00    -0.192 NA
ENDROOT
BRANCH   1  11
ATOM     11  S   UNL     1       2.700   1.705  -1.831  1.00  0.00    -0.101 SA
BRANCH  11  12
ATOM     12  C   UNL     1       3.381   2.149  -0.202  1.00  0.00     0.103 C 
BRANCH  12  13
ATOM     13  C   UNL     1       3.976   0.958   0.485  1.00  0.00    -0.024 C 
ATOM     14  C   UNL     1       3.623   0.533   1.706  1.00  0.00     0.005 C 
ENDBRANCH  12  13
ENDBRANCH  11  12
ENDBRANCH   1  11
BRANCH   3  15
ATOM     15  N   UNL     1       1.540  -3.085  -1.673  1.00  0.00    -0.383 N 
ATOM     16  H   UNL     1       1.616  -3.684  -0.855  1.00  0.00     0.158 HD
ATOM     17  H   UNL     1       0.932  -3.551  -2.342  1.00  0.00     0.158 HD
ENDBRANCH   3  15
BRANCH   7  18
ATOM     18  C   UNL     1      -1.906  -0.040   0.191  1.00  0.00    -0.015 A 
ATOM     19  C   UNL     1      -2.032  -0.025   1.589  1.00  0.00     0.009 A 
ATOM     20  C   UNL     1      -3.048   0.190  -0.592  1.00  0.00     0.009 A 
ATOM     21  C   UNL     1      -3.271   0.213   2.188  1.00  0.00     0.001 A 
ATOM     22  C   UNL     1      -4.285   0.429   0.009  1.00  0.00     0.001 A 
ATOM     23  C   UNL     1      -4.396   0.440   1.397  1.00  0.00     0.000 A 
ENDBRANCH   7  18
TORSDOF 5
