REMARK SMILES COc1cccc(-c2cncnc2NCc2cccc(C)c2)c1
REMARK SMILES IDX 8 1 9 2 10 3 11 4 12 5 13 6 7 7 3 8 4 9 23 10 5 11 6 12 2 13
REMARK SMILES IDX 1 14 14 15 15 17 16 18 17 19 22 20 18 21 20 22 19 23 21 24
REMARK H PARENT 14 16
ROOT
ATOM      1  C   UNL     1       0.806   0.069   2.120  1.00  0.00     0.043 A 
ATOM      2  C   UNL     1       0.572  -0.583   3.324  1.00  0.00     0.125 A 
ATOM      3  N   UNL     1      -0.608  -0.602   3.973  1.00  0.00    -0.244 NA
ATOM      4  C   UNL     1      -1.596   0.058   3.362  1.00  0.00     0.224 A 
ATOM      5  N   UNL     1      -1.503   0.731   2.207  1.00  0.00    -0.219 NA
ATOM      6  C   UNL     1      -0.305   0.738   1.588  1.00  0.00     0.137 A 
ENDROOT
BRANCH   1   7
ATOM      7  C   UNL     1       2.136   0.026   1.489  1.00  0.00    -0.009 A 
ATOM      8  C   UNL     1       3.569  -0.546  -0.412  1.00  0.00     0.119 A 
ATOM      9  C   UNL     1       4.681  -0.072   0.282  1.00  0.00     0.046 A 
ATOM     10  C   UNL     1       2.310  -0.494   0.195  1.00  0.00     0.055 A 
ATOM     11  C   UNL     1       4.532   0.447   1.569  1.00  0.00     0.004 A 
ATOM     12  C   UNL     1       3.272   0.495   2.167  1.00  0.00     0.009 A 
BRANCH   8  13
ATOM     13  O   UNL     1       3.575  -1.075  -1.673  1.00  0.00    -0.497 OA
ATOM     14  C   UNL     1       4.834  -1.174  -2.326  1.00  0.00     0.278 C 
ENDBRANCH   8  13
ENDBRANCH   1   7
BRANCH   6  15
ATOM     15  N   UNL     1      -0.174   1.419   0.364  1.00  0.00    -0.365 N 
ATOM     16  H   UNL     1       0.628   2.040   0.409  1.00  0.00     0.162 HD
BRANCH  15  17
ATOM     17  C   UNL     1      -1.358   2.074  -0.172  1.00  0.00     0.150 C 
BRANCH  17  18
ATOM     18  C   UNL     1      -2.186   1.114  -0.994  1.00  0.00    -0.029 A 
ATOM     19  C   UNL     1      -1.670   0.560  -2.175  1.00  0.00     0.005 A 
ATOM     20  C   UNL     1      -3.483   0.763  -0.591  1.00  0.00     0.009 A 
ATOM     21  C   UNL     1      -2.441  -0.312  -2.943  1.00  0.00     0.001 A 
ATOM     22  C   UNL     1      -4.258  -0.126  -1.350  1.00  0.00    -0.051 A 
ATOM     23  C   UNL     1      -3.732  -0.647  -2.537  1.00  0.00     0.003 A 
ATOM     24  C   UNL     1      -5.653  -0.471  -0.920  1.00  0.00     0.044 C 
ENDBRANCH  17  18
ENDBRANCH  15  17
ENDBRANCH   6  15
TORSDOF 5
