REMARK SMILES COc1ccc(-c2nnc3n2N=C(c2ccccc2)CS3)cc1OC
REMARK SMILES IDX 3 1 4 2 5 3 6 4 22 5 23 6 2 7 1 8 24 9 25 10 7 11 8 12 11 13
REMARK SMILES IDX 9 14 10 15 12 16 21 17 13 18 20 19 14 20 15 21 19 22 16 23
REMARK SMILES IDX 18 24 17 25
REMARK H PARENT
ROOT
ATOM      1  C   UNL     1      -3.585  -0.632   1.328  1.00  0.00     0.160 A 
ATOM      2  C   UNL     1      -3.569  -1.961   0.900  1.00  0.00     0.051 A 
ATOM      3  C   UNL     1      -2.614  -2.393  -0.026  1.00  0.00     0.016 A 
ATOM      4  C   UNL     1      -1.653  -1.514  -0.539  1.00  0.00     0.025 A 
ATOM      5  C   UNL     1      -1.687  -0.175  -0.120  1.00  0.00     0.062 A 
ATOM      6  C   UNL     1      -2.635   0.271   0.812  1.00  0.00     0.161 A 
ENDROOT
BRANCH   1   7
ATOM      7  O   UNL     1      -4.476  -0.119   2.236  1.00  0.00    -0.493 OA
ATOM      8  C   UNL     1      -5.483  -0.989   2.734  1.00  0.00     0.278 C 
ENDBRANCH   1   7
BRANCH   6   9
ATOM      9  O   UNL     1      -2.716   1.562   1.276  1.00  0.00    -0.493 OA
ATOM     10  C   UNL     1      -1.764   2.499   0.794  1.00  0.00     0.278 C 
ENDBRANCH   6   9
BRANCH   4  11
ATOM     11  C   UNL     1      -0.670  -2.021  -1.506  1.00  0.00     0.186 A 
ATOM     12  N   UNL     1      -0.857  -3.064  -2.304  1.00  0.00    -0.127 NA
ATOM     13  N   UNL     1       0.620  -1.541  -1.703  1.00  0.00    -0.187 N 
ATOM     14  N   UNL     1       0.268  -3.244  -3.074  1.00  0.00    -0.121 NA
ATOM     15  C   UNL     1       1.127  -2.330  -2.707  1.00  0.00     0.212 A 
ATOM     16  N   UNL     1       1.213  -0.481  -1.062  1.00  0.00    -0.168 NA
ATOM     17  S   UNL     1       2.700  -2.049  -3.352  1.00  0.00    -0.078 SA
ATOM     18  C   UNL     1       2.502  -0.341  -1.204  1.00  0.00     0.079 C 
ATOM     19  C   UNL     1       3.435  -1.353  -1.859  1.00  0.00     0.137 C 
BRANCH  18  20
ATOM     20  C   UNL     1       3.133   0.853  -0.570  1.00  0.00    -0.001 A 
ATOM     21  C   UNL     1       2.668   1.276   0.682  1.00  0.00     0.010 A 
ATOM     22  C   UNL     1       4.146   1.569  -1.215  1.00  0.00     0.010 A 
ATOM     23  C   UNL     1       3.234   2.393   1.297  1.00  0.00     0.001 A 
ATOM     24  C   UNL     1       4.708   2.688  -0.596  1.00  0.00     0.001 A 
ATOM     25  C   UNL     1       4.255   3.096   0.659  1.00  0.00     0.000 A 
ENDBRANCH  18  20
ENDBRANCH   4  11
TORSDOF 4
