REMARK SMILES CCc1nc(N)c(C#N)c(-c2ccc(OC)c(OC)c2)c1C
REMARK SMILES IDX 3 1 4 2 5 3 7 4 8 5 9 6 10 7 21 8 22 9 2 10 1 11 6 12 11 15
REMARK SMILES IDX 12 16 20 17 13 18 17 19 14 20 18 21 19 22 15 23 16 24
REMARK H PARENT 6 13 6 14
ROOT
ATOM      1  C   UNL     1      -3.105   0.310   0.079  1.00  0.00     0.046 A 
ATOM      2  N   UNL     1      -3.380   1.466  -0.576  1.00  0.00    -0.235 NA
ATOM      3  C   UNL     1      -2.373   2.281  -0.927  1.00  0.00     0.142 A 
ATOM      4  C   UNL     1      -1.042   1.987  -0.648  1.00  0.00     0.102 A 
ATOM      5  C   UNL     1      -0.013   2.896  -1.059  1.00  0.00     0.104 C 
ATOM      6  N   UNL     1       0.819   3.624  -1.417  1.00  0.00    -0.192 NA
ATOM      7  C   UNL     1      -0.737   0.785   0.024  1.00  0.00     0.008 A 
ATOM      8  C   UNL     1      -1.798  -0.073   0.413  1.00  0.00    -0.020 A 
ATOM      9  C   UNL     1      -1.503  -1.377   1.113  1.00  0.00     0.047 C 
ENDROOT
BRANCH   1  10
ATOM     10  C   UNL     1      -4.323  -0.529   0.384  1.00  0.00     0.053 C 
ATOM     11  C   UNL     1      -4.502  -1.664  -0.613  1.00  0.00     0.011 C 
ENDBRANCH   1  10
BRANCH   3  12
ATOM     12  N   UNL     1      -2.781   3.459  -1.549  1.00  0.00    -0.383 N 
ATOM     13  H   UNL     1      -3.790   3.406  -1.669  1.00  0.00     0.158 HD
ATOM     14  H   UNL     1      -2.304   3.641  -2.425  1.00  0.00     0.158 HD
ENDBRANCH   3  12
BRANCH   7  15
ATOM     15  C   UNL     1       0.667   0.425   0.308  1.00  0.00    -0.013 A 
ATOM     16  C   UNL     1       1.321   0.938   1.435  1.00  0.00     0.013 A 
ATOM     17  C   UNL     1       1.370  -0.441  -0.545  1.00  0.00     0.059 A 
ATOM     18  C   UNL     1       2.647   0.592   1.710  1.00  0.00     0.051 A 
ATOM     19  C   UNL     1       2.699  -0.793  -0.279  1.00  0.00     0.161 A 
ATOM     20  C   UNL     1       3.343  -0.273   0.861  1.00  0.00     0.160 A 
BRANCH  19  21
ATOM     21  O   UNL     1       3.446  -1.642  -1.059  1.00  0.00    -0.493 OA
ATOM     22  C   UNL     1       2.906  -2.026  -2.316  1.00  0.00     0.278 C 
ENDBRANCH  19  21
BRANCH  20  23
ATOM     23  O   UNL     1       4.641  -0.673   1.057  1.00  0.00    -0.493 OA
ATOM     24  C   UNL     1       5.362  -0.071   2.123  1.00  0.00     0.278 C 
ENDBRANCH  20  23
ENDBRANCH   7  15
TORSDOF 5
