REMARK SMILES COCCNc1nc(-c2cccc(OC)c2)nc2ccccc12
REMARK SMILES IDX 5 1 4 3 3 4 2 5 1 6 6 7 7 8 23 9 8 10 22 11 18 12 17 13
REMARK SMILES IDX 21 14 19 15 20 16 9 17 10 18 16 19 11 20 13 21 12 22 14 23
REMARK SMILES IDX 15 24
REMARK H PARENT 5 2
ROOT
ATOM      1  N   UNL     1      -2.880  -1.423   0.238  1.00  0.00    -0.367 N 
ATOM      2  H   UNL     1      -3.187  -2.191   0.831  1.00  0.00     0.162 HD
ENDROOT
BRANCH   1   3
ATOM      3  C   UNL     1      -3.396  -0.145   0.742  1.00  0.00     0.143 C 
BRANCH   3   4
ATOM      4  C   UNL     1      -3.423   0.944  -0.335  1.00  0.00     0.181 C 
BRANCH   4   5
ATOM      5  O   UNL     1      -4.087   2.101   0.186  1.00  0.00    -0.383 OA
ATOM      6  C   UNL     1      -4.119   3.153  -0.771  1.00  0.00     0.194 C 
ENDBRANCH   4   5
ENDBRANCH   3   4
ENDBRANCH   1   3
BRANCH   1   7
ATOM      7  C   UNL     1      -1.475  -1.518   0.109  1.00  0.00     0.138 A 
ATOM      8  N   UNL     1      -0.724  -0.449   0.416  1.00  0.00    -0.211 NA
ATOM      9  C   UNL     1      -0.906  -2.716  -0.358  1.00  0.00     0.043 A 
ATOM     10  C   UNL     1       0.609  -0.561   0.294  1.00  0.00     0.162 A 
ATOM     11  C   UNL     1      -1.634  -3.871  -0.744  1.00  0.00     0.014 A 
ATOM     12  C   UNL     1       0.491  -2.725  -0.443  1.00  0.00     0.076 A 
ATOM     13  N   UNL     1       1.242  -1.670  -0.118  1.00  0.00    -0.228 NA
ATOM     14  C   UNL     1      -0.978  -5.016  -1.188  1.00  0.00     0.001 A 
ATOM     15  C   UNL     1       1.125  -3.880  -0.886  1.00  0.00     0.029 A 
ATOM     16  C   UNL     1       0.408  -5.022  -1.256  1.00  0.00     0.002 A 
BRANCH  10  17
ATOM     17  C   UNL     1       1.429   0.619   0.638  1.00  0.00     0.023 A 
ATOM     18  C   UNL     1       0.842   1.816   1.090  1.00  0.00     0.012 A 
ATOM     19  C   UNL     1       2.833   0.599   0.529  1.00  0.00     0.058 A 
ATOM     20  C   UNL     1       1.619   2.931   1.415  1.00  0.00     0.005 A 
ATOM     21  C   UNL     1       3.622   1.710   0.852  1.00  0.00     0.119 A 
ATOM     22  C   UNL     1       3.007   2.878   1.296  1.00  0.00     0.046 A 
BRANCH  21  23
ATOM     23  O   UNL     1       4.967   1.522   0.690  1.00  0.00    -0.497 OA
ATOM     24  C   UNL     1       5.814   2.619   1.007  1.00  0.00     0.278 C 
ENDBRANCH  21  23
ENDBRANCH  10  17
ENDBRANCH   1   7
TORSDOF 6
