REMARK SMILES COc1cccc(-c2nc(NCc3ccccc3OC)c3ccccc3n2)c1
REMARK SMILES IDX 11 1 10 3 8 4 9 5 27 6 26 7 21 8 25 9 22 10 24 11 23 12 7 13
REMARK SMILES IDX 3 14 4 15 28 16 5 17 6 18 2 19 1 20 12 21 13 22 14 23 18 24
REMARK SMILES IDX 15 25 17 26 16 27 19 28 20 29
REMARK H PARENT 11 2
ROOT
ATOM      1  N   UNL     1      -1.608  -0.696  -0.438  1.00  0.00    -0.365 N 
ATOM      2  H   UNL     1      -2.128  -1.083   0.346  1.00  0.00     0.162 HD
ENDROOT
BRANCH   1   3
ATOM      3  C   UNL     1      -0.335  -1.307  -0.480  1.00  0.00     0.138 A 
ATOM      4  C   UNL     1       1.957  -1.129  -0.554  1.00  0.00     0.162 A 
ATOM      5  N   UNL     1       0.757  -0.527  -0.517  1.00  0.00    -0.211 NA
ATOM      6  N   UNL     1       2.140  -2.460  -0.561  1.00  0.00    -0.228 NA
ATOM      7  C   UNL     1       1.050  -3.231  -0.550  1.00  0.00     0.076 A 
ATOM      8  C   UNL     1      -0.248  -2.709  -0.517  1.00  0.00     0.043 A 
ATOM      9  C   UNL     1       1.213  -4.611  -0.575  1.00  0.00     0.029 A 
ATOM     10  C   UNL     1      -1.356  -3.596  -0.531  1.00  0.00     0.014 A 
ATOM     11  C   UNL     1       0.122  -5.486  -0.578  1.00  0.00     0.002 A 
ATOM     12  C   UNL     1      -1.168  -4.976  -0.559  1.00  0.00     0.001 A 
BRANCH   4  13
ATOM     13  C   UNL     1       3.158  -0.268  -0.582  1.00  0.00     0.023 A 
ATOM     14  C   UNL     1       4.187   1.965  -0.599  1.00  0.00     0.119 A 
ATOM     15  C   UNL     1       5.455   1.390  -0.636  1.00  0.00     0.046 A 
ATOM     16  C   UNL     1       3.058   1.137  -0.572  1.00  0.00     0.058 A 
ATOM     17  C   UNL     1       5.588   0.002  -0.647  1.00  0.00     0.005 A 
ATOM     18  C   UNL     1       4.454  -0.814  -0.621  1.00  0.00     0.012 A 
BRANCH  14  19
ATOM     19  O   UNL     1       3.913   3.306  -0.584  1.00  0.00    -0.497 OA
ATOM     20  C   UNL     1       5.025   4.191  -0.616  1.00  0.00     0.278 C 
ENDBRANCH  14  19
ENDBRANCH   4  13
ENDBRANCH   1   3
BRANCH   1  21
ATOM     21  C   UNL     1      -1.583   0.759  -0.330  1.00  0.00     0.154 C 
BRANCH  21  22
ATOM     22  C   UNL     1      -3.009   1.267  -0.268  1.00  0.00     0.013 A 
ATOM     23  C   UNL     1      -3.645   1.670  -1.455  1.00  0.00     0.009 A 
ATOM     24  C   UNL     1      -3.721   1.311   0.946  1.00  0.00     0.123 A 
ATOM     25  C   UNL     1      -4.959   2.134  -1.436  1.00  0.00     0.001 A 
ATOM     26  C   UNL     1      -5.040   1.779   0.954  1.00  0.00     0.047 A 
ATOM     27  C   UNL     1      -5.653   2.192  -0.232  1.00  0.00     0.004 A 
BRANCH  24  28
ATOM     28  O   UNL     1      -3.047   0.861   2.052  1.00  0.00    -0.496 OA
ATOM     29  C   UNL     1      -3.696   0.991   3.311  1.00  0.00     0.278 C 
ENDBRANCH  24  28
ENDBRANCH  21  22
ENDBRANCH   1  21
TORSDOF 6
