REMARK SMILES CC(=O)N(C)c1nc(-c2ccc(Cl)cc2)cs1
REMARK SMILES IDX 6 1 7 2 8 3 16 4 17 5 4 6 5 7 2 8 3 9 1 10 9 11 10 12 15 13
REMARK SMILES IDX 11 14 14 15 12 16 13 17
REMARK H PARENT
ROOT
ATOM      1  C   UNL     1      -1.345   0.603  -0.490  1.00  0.00     0.192 A 
ATOM      2  N   UNL     1      -0.241   0.031  -0.073  1.00  0.00    -0.220 NA
ATOM      3  C   UNL     1       0.888   0.710  -0.502  1.00  0.00     0.084 A 
ATOM      4  C   UNL     1       0.614   1.832  -1.255  1.00  0.00     0.097 A 
ATOM      5  S   UNL     1      -1.080   2.033  -1.414  1.00  0.00    -0.104 S 
ENDROOT
BRANCH   1   6
ATOM      6  N   UNL     1      -2.664   0.192  -0.237  1.00  0.00    -0.291 N 
ATOM      7  C   UNL     1      -3.820   0.952  -0.713  1.00  0.00     0.156 C 
BRANCH   6   8
ATOM      8  C   UNL     1      -2.813  -0.973   0.532  1.00  0.00     0.225 C 
ATOM      9  O   UNL     1      -1.930  -1.785   0.812  1.00  0.00    -0.275 OA
ATOM     10  C   UNL     1      -4.204  -1.254   1.060  1.00  0.00     0.115 C 
ENDBRANCH   6   8
ENDBRANCH   1   6
BRANCH   3  11
ATOM     11  C   UNL     1       2.223   0.222  -0.157  1.00  0.00     0.001 A 
ATOM     12  C   UNL     1       3.391   0.949  -0.436  1.00  0.00     0.012 A 
ATOM     13  C   UNL     1       2.350  -1.023   0.483  1.00  0.00     0.012 A 
ATOM     14  C   UNL     1       4.649   0.441  -0.087  1.00  0.00     0.021 A 
ATOM     15  C   UNL     1       3.605  -1.531   0.832  1.00  0.00     0.021 A 
ATOM     16  C   UNL     1       4.750  -0.796   0.544  1.00  0.00     0.041 A 
ATOM     17  Cl  UNL     1       6.297  -1.414   0.970  1.00  0.00    -0.084 Cl
ENDBRANCH   3  11
TORSDOF 3
