REMARK SMILES COCCNS(=O)(=O)c1cc(-c2nn(C)c(=O)c3ccccc23)ccc1C
REMARK SMILES IDX 5 1 4 3 3 4 2 5 1 6 6 7 7 8 8 9 9 10 10 11 26 12 11 13 25 14
REMARK SMILES IDX 24 15 27 16 12 17 13 18 23 19 14 20 22 21 18 22 16 23 21 24
REMARK SMILES IDX 19 25 17 26 20 27 15 28
REMARK H PARENT 5 2
ROOT
ATOM      1  N   UNL     1       3.268  -1.212  -0.306  1.00  0.00    -0.209 NA
ATOM      2  H   UNL     1       2.572  -1.852  -0.688  1.00  0.00     0.141 HD
ENDROOT
BRANCH   1   3
ATOM      3  C   UNL     1       4.370  -0.907  -1.251  1.00  0.00     0.127 C 
BRANCH   3   4
ATOM      4  C   UNL     1       5.584  -0.243  -0.591  1.00  0.00     0.176 C 
BRANCH   4   5
ATOM      5  O   UNL     1       5.414   1.151  -0.341  1.00  0.00    -0.383 OA
ATOM      6  C   UNL     1       5.504   1.965  -1.501  1.00  0.00     0.194 C 
ENDBRANCH   4   5
ENDBRANCH   3   4
ENDBRANCH   1   3
BRANCH   1   7
ATOM      7  S   UNL     1       2.551   0.095   0.497  1.00  0.00     0.240 S 
ATOM      8  O   UNL     1       3.300   0.409   1.690  1.00  0.00    -0.207 OA
ATOM      9  O   UNL     1       2.233   1.090  -0.506  1.00  0.00    -0.207 OA
BRANCH   7  10
ATOM     10  C   UNL     1       1.001  -0.644   1.011  1.00  0.00     0.086 A 
ATOM     11  C   UNL     1      -0.163  -0.235   0.343  1.00  0.00     0.032 A 
ATOM     12  C   UNL     1       0.940  -1.597   2.050  1.00  0.00    -0.031 A 
ATOM     13  C   UNL     1      -1.396  -0.769   0.719  1.00  0.00     0.004 A 
ATOM     14  C   UNL     1      -0.317  -2.126   2.397  1.00  0.00     0.005 A 
ATOM     15  C   UNL     1      -1.476  -1.726   1.731  1.00  0.00     0.011 A 
ATOM     16  C   UNL     1       2.144  -2.052   2.828  1.00  0.00     0.046 C 
BRANCH  13  17
ATOM     17  C   UNL     1      -2.633  -0.371   0.008  1.00  0.00     0.099 A 
ATOM     18  N   UNL     1      -3.242  -1.304  -0.658  1.00  0.00    -0.169 NA
ATOM     19  C   UNL     1      -3.118   1.026   0.070  1.00  0.00     0.015 A 
ATOM     20  N   UNL     1      -4.374  -0.994  -1.367  1.00  0.00    -0.232 N 
ATOM     21  C   UNL     1      -2.531   2.013   0.874  1.00  0.00     0.011 A 
ATOM     22  C   UNL     1      -4.230   1.343  -0.702  1.00  0.00     0.051 A 
ATOM     23  C   UNL     1      -4.888   0.291  -1.498  1.00  0.00     0.274 A 
ATOM     24  C   UNL     1      -3.041   3.315   0.870  1.00  0.00     0.001 A 
ATOM     25  C   UNL     1      -4.740   2.649  -0.707  1.00  0.00     0.014 A 
ATOM     26  O   UNL     1      -5.845   0.585  -2.212  1.00  0.00    -0.267 OA
ATOM     27  C   UNL     1      -4.141   3.635   0.077  1.00  0.00     0.001 A 
ATOM     28  C   UNL     1      -4.956  -2.084  -2.128  1.00  0.00     0.178 C 
ENDBRANCH  13  17
ENDBRANCH   7  10
ENDBRANCH   1   7
TORSDOF 6
