REMARK SMILES CCn1c(SCC(N)=O)nc2ccccc2c1=O
REMARK SMILES IDX 5 1 4 2 3 3 17 4 10 5 16 6 18 7 11 8 15 9 12 10 14 11 13 12
REMARK SMILES IDX 2 13 1 14 6 15 7 16 8 17 9 18
REMARK H PARENT 8 19 8 20
ROOT
ATOM      1  S   UNL     1       2.001   0.520  -0.735  1.00  0.00    -0.078 SA
ENDROOT
BRANCH   1   2
ATOM      2  C   UNL     1       0.365   0.232  -0.170  1.00  0.00     0.171 A 
ATOM      3  N   UNL     1      -0.435   1.326   0.123  1.00  0.00    -0.287 N 
ATOM      4  C   UNL     1      -1.719   1.137   0.637  1.00  0.00     0.262 A 
ATOM      5  N   UNL     1      -0.006  -0.999  -0.038  1.00  0.00    -0.224 NA
ATOM      6  C   UNL     1      -2.183  -0.253   0.774  1.00  0.00     0.066 A 
ATOM      7  O   UNL     1      -2.466   2.051   0.982  1.00  0.00    -0.269 OA
ATOM      8  C   UNL     1      -1.297  -1.265   0.423  1.00  0.00     0.079 A 
ATOM      9  C   UNL     1      -3.470  -0.547   1.240  1.00  0.00     0.016 A 
ATOM     10  C   UNL     1      -1.712  -2.594   0.542  1.00  0.00     0.029 A 
ATOM     11  C   UNL     1      -3.874  -1.876   1.355  1.00  0.00     0.001 A 
ATOM     12  C   UNL     1      -2.995  -2.900   1.005  1.00  0.00     0.002 A 
BRANCH   3  13
ATOM     13  C   UNL     1      -0.000   2.722  -0.009  1.00  0.00     0.125 C 
ATOM     14  C   UNL     1       0.647   3.239   1.270  1.00  0.00     0.028 C 
ENDBRANCH   3  13
ENDBRANCH   1   2
BRANCH   1  15
ATOM     15  C   UNL     1       2.271  -1.000  -1.695  1.00  0.00     0.177 C 
BRANCH  15  16
ATOM     16  C   UNL     1       3.595  -0.918  -2.426  1.00  0.00     0.227 C 
ATOM     17  N   UNL     1       4.710  -0.858  -1.634  1.00  0.00    -0.369 N 
ATOM     18  O   UNL     1       3.699  -0.947  -3.648  1.00  0.00    -0.274 OA
ATOM     19  H   UNL     1       5.583  -0.692  -2.119  1.00  0.00     0.159 HD
ATOM     20  H   UNL     1       4.629  -0.495  -0.693  1.00  0.00     0.159 HD
ENDBRANCH  15  16
ENDBRANCH   1  15
TORSDOF 4
