REMARK SMILES COc1ccccc1-c1ccc2ncnc(N3CC[NH2+]CC3)c2c1
REMARK SMILES IDX 9 1 10 2 11 3 12 4 13 5 14 6 15 7 16 8 23 9 24 10 8 11 3 12
REMARK SMILES IDX 4 13 5 14 7 15 6 16 2 17 1 18 17 19 18 20 22 21 19 22 21 23
REMARK SMILES IDX 20 24
REMARK H PARENT 20 25 20 26
ROOT
ATOM      1  C   UNL     1       1.714  -0.035  -1.211  1.00  0.00    -0.014 A 
ATOM      2  C   UNL     1       1.735   0.663  -2.422  1.00  0.00     0.011 A 
ATOM      3  C   UNL     1       0.622   1.399  -2.843  1.00  0.00     0.030 A 
ATOM      4  C   UNL     1      -0.541   1.464  -2.089  1.00  0.00     0.076 A 
ATOM      5  N   UNL     1      -1.570   2.189  -2.541  1.00  0.00    -0.236 NA
ATOM      6  C   UNL     1      -2.667   2.232  -1.784  1.00  0.00     0.224 A 
ATOM      7  N   UNL     1      -2.862   1.584  -0.622  1.00  0.00    -0.219 NA
ATOM      8  C   UNL     1      -1.803   0.870  -0.170  1.00  0.00     0.140 A 
ATOM      9  C   UNL     1      -0.592   0.764  -0.880  1.00  0.00     0.043 A 
ATOM     10  C   UNL     1       0.540   0.027  -0.448  1.00  0.00     0.023 A 
ENDROOT
BRANCH   1  11
ATOM     11  C   UNL     1       2.882  -0.815  -0.758  1.00  0.00     0.024 A 
ATOM     12  C   UNL     1       3.556  -0.538   0.454  1.00  0.00     0.126 A 
ATOM     13  C   UNL     1       4.653  -1.321   0.837  1.00  0.00     0.047 A 
ATOM     14  C   UNL     1       5.099  -2.365   0.024  1.00  0.00     0.004 A 
ATOM     15  C   UNL     1       3.354  -1.872  -1.562  1.00  0.00     0.012 A 
ATOM     16  C   UNL     1       4.453  -2.639  -1.175  1.00  0.00     0.001 A 
BRANCH  12  17
ATOM     17  O   UNL     1       3.067   0.505   1.203  1.00  0.00    -0.496 OA
ATOM     18  C   UNL     1       3.922   1.033   2.211  1.00  0.00     0.278 C 
ENDBRANCH  12  17
ENDBRANCH   1  11
BRANCH   8  19
ATOM     19  N   UNL     1      -1.968   0.167   1.047  1.00  0.00    -0.345 N 
ATOM     20  C   UNL     1      -2.672   0.946   2.095  1.00  0.00     0.179 C 
ATOM     21  C   UNL     1      -2.521  -1.188   0.818  1.00  0.00     0.179 C 
ATOM     22  C   UNL     1      -4.195   0.678   2.135  1.00  0.00     0.282 C 
ATOM     23  C   UNL     1      -4.025  -1.170   0.447  1.00  0.00     0.282 C 
ATOM     24  N   UNL     1      -4.664   0.141   0.818  1.00  0.00    -0.343 N 
ATOM     25  H   UNL     1      -5.685   0.117   0.735  1.00  0.00     0.346 HD
ATOM     26  H   UNL     1      -4.311   0.822   0.116  1.00  0.00     0.346 HD
ENDBRANCH   8  19
TORSDOF 3
