REMARK SMILES Cn1c(=O)[nH]c(=O)c2c1nc(Br)n2Cc1ccccc1Cl
REMARK SMILES IDX 14 1 13 2 2 3 3 4 9 5 4 6 5 7 8 8 10 9 6 10 11 11 7 12 1 13
REMARK SMILES IDX 12 15 15 16 16 17 20 18 17 19 19 20 18 21 21 22
REMARK H PARENT 5 14
ROOT
ATOM      1  C   UNL     1       0.861   0.795   1.605  1.00  0.00     0.162 C 
ENDROOT
BRANCH   1   2
ATOM      2  N   UNL     1      -0.273   0.022   1.110  1.00  0.00    -0.308 N 
ATOM      3  N   UNL     1      -3.252  -0.540  -0.634  1.00  0.00    -0.279 N 
ATOM      4  C   UNL     1      -3.522   0.633  -1.329  1.00  0.00     0.329 A 
ATOM      5  C   UNL     1      -2.120  -0.600   0.150  1.00  0.00     0.169 A 
ATOM      6  O   UNL     1      -4.498   0.793  -2.063  1.00  0.00    -0.248 OA
ATOM      7  N   UNL     1      -2.625   1.675  -1.177  1.00  0.00    -0.272 N 
ATOM      8  C   UNL     1      -1.259   0.454   0.260  1.00  0.00     0.153 A 
ATOM      9  N   UNL     1      -1.719  -1.665   0.889  1.00  0.00    -0.203 NA
ATOM     10  C   UNL     1      -1.468   1.679  -0.431  1.00  0.00     0.279 A 
ATOM     11  C   UNL     1      -0.600  -1.269   1.466  1.00  0.00     0.180 A 
ATOM     12  O   UNL     1      -0.715   2.645  -0.401  1.00  0.00    -0.267 OA
ATOM     13  C   UNL     1      -4.142  -1.681  -0.733  1.00  0.00     0.157 C 
ATOM     14  H   UNL     1      -2.833   2.512  -1.698  1.00  0.00     0.175 HD
ATOM     15  Br  UNL     1       0.378  -2.414   2.643  1.00  0.00    -0.008 Br
ENDBRANCH   1   2
BRANCH   1  16
ATOM     16  C   UNL     1       2.161   0.413   0.935  1.00  0.00    -0.010 A 
ATOM     17  C   UNL     1       2.265   0.481  -0.469  1.00  0.00     0.007 A 
ATOM     18  C   UNL     1       3.305   0.035   1.660  1.00  0.00     0.046 A 
ATOM     19  C   UNL     1       3.451   0.143  -1.124  1.00  0.00     0.000 A 
ATOM     20  C   UNL     1       4.491  -0.305   1.000  1.00  0.00     0.021 A 
ATOM     21  C   UNL     1       4.563  -0.256  -0.391  1.00  0.00     0.002 A 
ATOM     22  Cl  UNL     1       3.331  -0.015   3.388  1.00  0.00    -0.084 Cl
ENDBRANCH   1  16
TORSDOF 2
