REMARK SMILES Nc1ccc(-c2nc3c(Cl)cc(N)cc3[nH]2)cc1
REMARK SMILES IDX 6 1 7 2 8 3 9 4 10 5 11 6 12 7 14 8 15 9 16 10 5 12 2 13
REMARK SMILES IDX 3 14 18 15 4 16 17 17 1 18 13 21
REMARK H PARENT 16 11 1 19 1 20 13 22 13 23
ROOT
ATOM      1  C   UNL     1      -0.194   0.143  -0.007  1.00  0.00     0.138 A 
ATOM      2  N   UNL     1       0.376   1.289   0.322  1.00  0.00    -0.227 NA
ATOM      3  C   UNL     1       1.737   1.082   0.284  1.00  0.00     0.108 A 
ATOM      4  C   UNL     1       2.827   1.935   0.514  1.00  0.00     0.071 A 
ATOM      5  Cl  UNL     1       2.468   3.558   0.904  1.00  0.00    -0.082 Cl
ATOM      6  C   UNL     1       4.137   1.462   0.410  1.00  0.00     0.048 A 
ATOM      7  C   UNL     1       4.382   0.116   0.118  1.00  0.00     0.035 A 
ATOM      8  C   UNL     1       3.311  -0.745  -0.176  1.00  0.00     0.054 A 
ATOM      9  C   UNL     1       2.012  -0.235  -0.063  1.00  0.00     0.069 A 
ATOM     10  N   UNL     1       0.778  -0.803  -0.249  1.00  0.00    -0.338 N 
ATOM     11  H   UNL     1       0.610  -1.764  -0.504  1.00  0.00     0.168 HD
ENDROOT
BRANCH   1  12
ATOM     12  C   UNL     1      -1.638  -0.103  -0.094  1.00  0.00     0.017 A 
ATOM     13  C   UNL     1      -4.444  -0.471  -0.259  1.00  0.00     0.031 A 
ATOM     14  C   UNL     1      -3.910   0.681   0.316  1.00  0.00     0.026 A 
ATOM     15  C   UNL     1      -3.566  -1.471  -0.679  1.00  0.00     0.026 A 
ATOM     16  C   UNL     1      -2.526   0.874   0.376  1.00  0.00     0.014 A 
ATOM     17  C   UNL     1      -2.178  -1.285  -0.619  1.00  0.00     0.014 A 
BRANCH  13  18
ATOM     18  N   UNL     1      -5.820  -0.714  -0.211  1.00  0.00    -0.399 N 
ATOM     19  H   UNL     1      -6.383   0.131  -0.188  1.00  0.00     0.156 HD
ATOM     20  H   UNL     1      -6.147  -1.375  -0.908  1.00  0.00     0.156 HD
ENDBRANCH  13  18
ENDBRANCH   1  12
BRANCH   7  21
ATOM     21  N   UNL     1       5.697  -0.322  -0.096  1.00  0.00    -0.399 N 
ATOM     22  H   UNL     1       5.826  -1.323   0.015  1.00  0.00     0.156 HD
ATOM     23  H   UNL     1       6.400   0.214   0.405  1.00  0.00     0.156 HD
ENDBRANCH   7  21
TORSDOF 3
