REMARK SMILES COc1ccccc1CNc1ncnc2ccc(-c3ccccc3C[NH+](C)C)cc12
REMARK SMILES IDX 11 1 12 2 13 3 14 4 15 5 16 6 17 7 18 8 29 9 30 10 10 11
REMARK SMILES IDX 9 13 8 14 3 15 4 16 5 17 7 18 6 19 2 20 1 21 19 22 20 23
REMARK SMILES IDX 24 24 21 25 23 26 22 27 25 28 26 29 27 30 28 31
REMARK H PARENT 10 12 26 32
ROOT
ATOM      1  C   UNL     1       1.470   0.623   0.868  1.00  0.00     0.137 A 
ATOM      2  N   UNL     1       2.292   1.442   1.541  1.00  0.00    -0.219 NA
ATOM      3  C   UNL     1       1.936   2.727   1.629  1.00  0.00     0.224 A 
ATOM      4  N   UNL     1       0.822   3.271   1.129  1.00  0.00    -0.236 NA
ATOM      5  C   UNL     1       0.014   2.455   0.452  1.00  0.00     0.076 A 
ATOM      6  C   UNL     1      -1.135   2.987  -0.118  1.00  0.00     0.030 A 
ATOM      7  C   UNL     1      -2.032   2.201  -0.848  1.00  0.00     0.011 A 
ATOM      8  C   UNL     1      -1.801   0.834  -1.015  1.00  0.00    -0.017 A 
ATOM      9  C   UNL     1      -0.635   0.291  -0.458  1.00  0.00     0.023 A 
ATOM     10  C   UNL     1       0.276   1.090   0.284  1.00  0.00     0.043 A 
ENDROOT
BRANCH   1  11
ATOM     11  N   UNL     1       1.803  -0.745   0.746  1.00  0.00    -0.365 N 
ATOM     12  H   UNL     1       1.087  -1.287   1.215  1.00  0.00     0.162 HD
BRANCH  11  13
ATOM     13  C   UNL     1       3.132  -1.130   1.248  1.00  0.00     0.154 C 
BRANCH  13  14
ATOM     14  C   UNL     1       4.267  -0.819   0.291  1.00  0.00     0.013 A 
ATOM     15  C   UNL     1       5.592  -0.768   0.773  1.00  0.00     0.123 A 
ATOM     16  C   UNL     1       6.645  -0.513  -0.113  1.00  0.00     0.047 A 
ATOM     17  C   UNL     1       6.397  -0.323  -1.474  1.00  0.00     0.004 A 
ATOM     18  C   UNL     1       4.042  -0.649  -1.087  1.00  0.00     0.009 A 
ATOM     19  C   UNL     1       5.097  -0.395  -1.962  1.00  0.00     0.001 A 
BRANCH  15  20
ATOM     20  O   UNL     1       5.749  -1.000   2.117  1.00  0.00    -0.496 OA
ATOM     21  C   UNL     1       7.058  -0.857   2.656  1.00  0.00     0.278 C 
ENDBRANCH  15  20
ENDBRANCH  13  14
ENDBRANCH  11  13
ENDBRANCH   1  11
BRANCH   8  22
ATOM     22  C   UNL     1      -2.736  -0.003  -1.777  1.00  0.00    -0.010 A 
ATOM     23  C   UNL     1      -2.688   0.049  -3.182  1.00  0.00     0.009 A 
ATOM     24  C   UNL     1      -3.676  -0.862  -1.159  1.00  0.00     0.014 A 
ATOM     25  C   UNL     1      -3.538  -0.730  -3.965  1.00  0.00     0.001 A 
ATOM     26  C   UNL     1      -4.521  -1.651  -1.967  1.00  0.00     0.010 A 
ATOM     27  C   UNL     1      -4.452  -1.583  -3.358  1.00  0.00     0.001 A 
BRANCH  24  28
ATOM     28  C   UNL     1      -3.821  -0.962   0.341  1.00  0.00     0.299 C 
BRANCH  28  29
ATOM     29  N   UNL     1      -5.114  -0.366   0.865  1.00  0.00    -0.336 N 
ATOM     30  C   UNL     1      -5.391  -0.800   2.274  1.00  0.00     0.332 C 
ATOM     31  C   UNL     1      -5.159   1.130   0.731  1.00  0.00     0.332 C 
ATOM     32  H   UNL     1      -5.869  -0.736   0.277  1.00  0.00     0.347 HD
ENDBRANCH  28  29
ENDBRANCH  24  28
ENDBRANCH   8  22
TORSDOF 7
