REMARK SMILES Clc1ccccc1-c1ccc2ncnc(N3CC[NH2+]CC3)c2c1
REMARK SMILES IDX 8 1 9 2 10 3 11 4 12 5 13 6 14 7 15 8 22 9 23 10 7 11 2 12
REMARK SMILES IDX 3 13 4 14 6 15 5 16 1 17 16 18 17 19 21 20 18 21 20 22 19 23
REMARK H PARENT 19 24 19 25
ROOT
ATOM      1  C   UNL     1      -2.288  -0.452  -0.243  1.00  0.00    -0.016 A 
ATOM      2  C   UNL     1      -2.576  -1.412  -1.217  1.00  0.00     0.011 A 
ATOM      3  C   UNL     1      -1.554  -2.187  -1.779  1.00  0.00     0.030 A 
ATOM      4  C   UNL     1      -0.226  -2.029  -1.408  1.00  0.00     0.076 A 
ATOM      5  N   UNL     1       0.706  -2.795  -1.985  1.00  0.00    -0.236 NA
ATOM      6  C   UNL     1       1.971  -2.607  -1.607  1.00  0.00     0.224 A 
ATOM      7  N   UNL     1       2.414  -1.687  -0.731  1.00  0.00    -0.219 NA
ATOM      8  C   UNL     1       1.454  -0.940  -0.136  1.00  0.00     0.140 A 
ATOM      9  C   UNL     1       0.087  -1.068  -0.443  1.00  0.00     0.043 A 
ATOM     10  C   UNL     1      -0.951  -0.305   0.150  1.00  0.00     0.023 A 
ENDROOT
BRANCH   1  11
ATOM     11  C   UNL     1      -3.353   0.371   0.353  1.00  0.00     0.000 A 
ATOM     12  C   UNL     1      -3.428   1.770   0.192  1.00  0.00     0.048 A 
ATOM     13  C   UNL     1      -4.462   2.507   0.781  1.00  0.00     0.021 A 
ATOM     14  C   UNL     1      -5.439   1.864   1.539  1.00  0.00     0.002 A 
ATOM     15  C   UNL     1      -4.354  -0.254   1.122  1.00  0.00     0.010 A 
ATOM     16  C   UNL     1      -5.385   0.484   1.709  1.00  0.00     0.001 A 
ATOM     17  Cl  UNL     1      -2.267   2.650  -0.750  1.00  0.00    -0.084 Cl
ENDBRANCH   1  11
BRANCH   8  18
ATOM     18  N   UNL     1       1.881   0.054   0.779  1.00  0.00    -0.345 N 
ATOM     19  C   UNL     1       3.018  -0.364   1.636  1.00  0.00     0.179 C 
ATOM     20  C   UNL     1       2.083   1.358   0.102  1.00  0.00     0.179 C 
ATOM     21  C   UNL     1       4.396   0.042   1.063  1.00  0.00     0.282 C 
ATOM     22  C   UNL     1       3.354   1.382  -0.785  1.00  0.00     0.282 C 
ATOM     23  N   UNL     1       4.300   0.272  -0.414  1.00  0.00    -0.343 N 
ATOM     24  H   UNL     1       5.215   0.371  -0.864  1.00  0.00     0.346 HD
ATOM     25  H   UNL     1       3.864  -0.596  -0.785  1.00  0.00     0.346 HD
ENDBRANCH   8  18
TORSDOF 2
