REMARK SMILES COc1ccccc1-c1ccc2ncnc(NCc3ccccc3)c2c1
REMARK SMILES IDX 9 1 10 2 11 3 12 4 13 5 14 6 15 7 16 8 25 9 26 10 8 11 3 12
REMARK SMILES IDX 4 13 5 14 7 15 6 16 2 17 1 18 17 19 18 21 19 22 20 23 24 24
REMARK SMILES IDX 21 25 23 26 22 27
REMARK H PARENT 17 20
ROOT
ATOM      1  C   UNL     1      -2.015  -1.002   0.913  1.00  0.00    -0.014 A 
ATOM      2  C   UNL     1      -2.099  -1.639   2.154  1.00  0.00     0.011 A 
ATOM      3  C   UNL     1      -1.065  -1.518   3.090  1.00  0.00     0.030 A 
ATOM      4  C   UNL     1       0.073  -0.765   2.834  1.00  0.00     0.076 A 
ATOM      5  N   UNL     1       1.022  -0.702   3.772  1.00  0.00    -0.236 NA
ATOM      6  C   UNL     1       2.102   0.029   3.476  1.00  0.00     0.224 A 
ATOM      7  N   UNL     1       2.312   0.717   2.349  1.00  0.00    -0.219 NA
ATOM      8  C   UNL     1       1.350   0.652   1.412  1.00  0.00     0.137 A 
ATOM      9  C   UNL     1       0.177  -0.106   1.603  1.00  0.00     0.043 A 
ATOM     10  C   UNL     1      -0.866  -0.242   0.649  1.00  0.00     0.023 A 
ENDROOT
BRANCH   1  11
ATOM     11  C   UNL     1      -3.088  -1.138  -0.089  1.00  0.00     0.024 A 
ATOM     12  C   UNL     1      -3.835  -0.031  -0.555  1.00  0.00     0.126 A 
ATOM     13  C   UNL     1      -4.838  -0.223  -1.515  1.00  0.00     0.047 A 
ATOM     14  C   UNL     1      -5.112  -1.500  -2.010  1.00  0.00     0.004 A 
ATOM     15  C   UNL     1      -3.384  -2.415  -0.604  1.00  0.00     0.012 A 
ATOM     16  C   UNL     1      -4.388  -2.595  -1.556  1.00  0.00     0.001 A 
BRANCH  12  17
ATOM     17  O   UNL     1      -3.513   1.191  -0.016  1.00  0.00    -0.496 OA
ATOM     18  C   UNL     1      -4.336   2.299  -0.356  1.00  0.00     0.278 C 
ENDBRANCH  12  17
ENDBRANCH   1  11
BRANCH   8  19
ATOM     19  N   UNL     1       1.512   1.367   0.205  1.00  0.00    -0.365 N 
ATOM     20  H   UNL     1       0.717   1.991   0.105  1.00  0.00     0.162 HD
BRANCH  19  21
ATOM     21  C   UNL     1       2.773   2.079   0.031  1.00  0.00     0.150 C 
BRANCH  21  22
ATOM     22  C   UNL     1       3.848   1.171  -0.521  1.00  0.00    -0.029 A 
ATOM     23  C   UNL     1       3.724   0.618  -1.805  1.00  0.00     0.005 A 
ATOM     24  C   UNL     1       4.987   0.868   0.237  1.00  0.00     0.005 A 
ATOM     25  C   UNL     1       4.722  -0.211  -2.321  1.00  0.00     0.000 A 
ATOM     26  C   UNL     1       5.984   0.039  -0.280  1.00  0.00     0.000 A 
ATOM     27  C   UNL     1       5.853  -0.498  -1.560  1.00  0.00     0.000 A 
ENDBRANCH  21  22
ENDBRANCH  19  21
ENDBRANCH   8  19
TORSDOF 5
