REMARK SMILES COCCNc1ncnc2ccc(-c3ccccc3OC)cc12
REMARK SMILES IDX 5 1 4 3 3 4 2 5 1 6 6 7 7 8 23 9 8 10 22 11 10 12 9 13 13 14
REMARK SMILES IDX 11 15 12 16 14 17 15 18 19 19 16 20 18 21 17 22 20 23 21 24
REMARK H PARENT 5 2
ROOT
ATOM      1  N   UNL     1       2.495  -0.375  -1.224  1.00  0.00    -0.367 N 
ATOM      2  H   UNL     1       2.230   0.441  -0.669  1.00  0.00     0.162 HD
ENDROOT
BRANCH   1   3
ATOM      3  C   UNL     1       3.956  -0.383  -1.377  1.00  0.00     0.143 C 
BRANCH   3   4
ATOM      4  C   UNL     1       4.663  -0.075  -0.051  1.00  0.00     0.181 C 
BRANCH   4   5
ATOM      5  O   UNL     1       4.223   1.207   0.425  1.00  0.00    -0.383 OA
ATOM      6  C   UNL     1       4.814   1.525   1.678  1.00  0.00     0.194 C 
ENDBRANCH   4   5
ENDBRANCH   3   4
ENDBRANCH   1   3
BRANCH   1   7
ATOM      7  C   UNL     1       1.921  -1.524  -0.639  1.00  0.00     0.137 A 
ATOM      8  N   UNL     1       2.710  -2.580  -0.374  1.00  0.00    -0.219 NA
ATOM      9  C   UNL     1       0.534  -1.548  -0.387  1.00  0.00     0.043 A 
ATOM     10  C   UNL     1       2.120  -3.648   0.172  1.00  0.00     0.224 A 
ATOM     11  C   UNL     1      -0.367  -0.490  -0.682  1.00  0.00     0.023 A 
ATOM     12  C   UNL     1       0.045  -2.724   0.196  1.00  0.00     0.076 A 
ATOM     13  N   UNL     1       0.826  -3.770   0.482  1.00  0.00    -0.236 NA
ATOM     14  C   UNL     1      -1.736  -0.581  -0.390  1.00  0.00    -0.014 A 
ATOM     15  C   UNL     1      -1.310  -2.809   0.484  1.00  0.00     0.030 A 
ATOM     16  C   UNL     1      -2.193  -1.761   0.202  1.00  0.00     0.011 A 
BRANCH  14  17
ATOM     17  C   UNL     1      -2.659   0.522  -0.717  1.00  0.00     0.024 A 
ATOM     18  C   UNL     1      -2.818   0.903  -2.064  1.00  0.00     0.012 A 
ATOM     19  C   UNL     1      -3.394   1.215   0.273  1.00  0.00     0.126 A 
ATOM     20  C   UNL     1      -3.681   1.937  -2.425  1.00  0.00     0.001 A 
ATOM     21  C   UNL     1      -4.260   2.251  -0.102  1.00  0.00     0.047 A 
ATOM     22  C   UNL     1      -4.402   2.608  -1.445  1.00  0.00     0.004 A 
BRANCH  19  23
ATOM     23  O   UNL     1      -3.191   0.815   1.571  1.00  0.00    -0.496 OA
ATOM     24  C   UNL     1      -3.866   1.530   2.596  1.00  0.00     0.278 C 
ENDBRANCH  19  23
ENDBRANCH  14  17
ENDBRANCH   1   7
TORSDOF 6
