REMARK SMILES COc1ccc(S(=O)(=O)c2ccc(OC)c(OC)c2)cc1OC
REMARK SMILES IDX 7 1 8 2 9 3 6 4 3 5 4 6 21 7 5 8 20 9 2 10 1 11 22 12 23 13
REMARK SMILES IDX 10 14 11 15 19 16 12 17 16 18 13 19 17 20 18 21 14 22 15 23
REMARK H PARENT
ROOT
ATOM      1  S   UNL     1       0.069   0.012  -2.332  1.00  0.00     0.206 S 
ATOM      2  O   UNL     1       0.177   1.087  -3.303  1.00  0.00    -0.219 OA
ATOM      3  O   UNL     1      -0.017  -1.368  -2.775  1.00  0.00    -0.219 OA
ENDROOT
BRANCH   1   4
ATOM      4  C   UNL     1       1.469   0.137  -1.243  1.00  0.00     0.076 A 
ATOM      5  C   UNL     1       3.679   0.331   0.450  1.00  0.00     0.160 A 
ATOM      6  C   UNL     1       3.201   1.464  -0.220  1.00  0.00     0.052 A 
ATOM      7  C   UNL     1       3.047  -0.917   0.254  1.00  0.00     0.162 A 
ATOM      8  C   UNL     1       2.100   1.369  -1.072  1.00  0.00     0.025 A 
ATOM      9  C   UNL     1       1.942  -1.010  -0.596  1.00  0.00     0.071 A 
BRANCH   5  10
ATOM     10  O   UNL     1       4.752   0.333   1.307  1.00  0.00    -0.493 OA
ATOM     11  C   UNL     1       5.433   1.562   1.512  1.00  0.00     0.278 C 
ENDBRANCH   5  10
BRANCH   7  12
ATOM     12  O   UNL     1       3.582  -1.977   0.944  1.00  0.00    -0.493 OA
ATOM     13  C   UNL     1       3.074  -3.274   0.662  1.00  0.00     0.278 C 
ENDBRANCH   7  12
ENDBRANCH   1   4
BRANCH   1  14
ATOM     14  C   UNL     1      -1.363   0.340  -1.330  1.00  0.00     0.076 A 
ATOM     15  C   UNL     1      -1.841   1.645  -1.218  1.00  0.00     0.025 A 
ATOM     16  C   UNL     1      -2.013  -0.722  -0.693  1.00  0.00     0.071 A 
ATOM     17  C   UNL     1      -2.968   1.899  -0.435  1.00  0.00     0.052 A 
ATOM     18  C   UNL     1      -3.145  -0.470   0.088  1.00  0.00     0.162 A 
ATOM     19  C   UNL     1      -3.623   0.852   0.225  1.00  0.00     0.160 A 
BRANCH  18  20
ATOM     20  O   UNL     1      -3.847  -1.438   0.763  1.00  0.00    -0.493 OA
ATOM     21  C   UNL     1      -3.496  -2.795   0.531  1.00  0.00     0.278 C 
ENDBRANCH  18  20
BRANCH  19  22
ATOM     22  O   UNL     1      -4.733   1.009   1.016  1.00  0.00    -0.493 OA
ATOM     23  C   UNL     1      -5.264   2.319   1.159  1.00  0.00     0.278 C 
ENDBRANCH  19  22
ENDBRANCH   1  14
TORSDOF 6
