REMARK SMILES COc1ccc(C[NH+]2CCN(c3cccc(C)c3C)CC2)cc1OC
REMARK SMILES IDX 7 1 6 2 3 3 4 4 23 5 5 6 22 7 2 8 1 9 24 10 25 11 8 12 9 13
REMARK SMILES IDX 21 14 10 15 20 16 11 17 12 19 13 20 18 21 14 22 16 23 15 24
REMARK SMILES IDX 19 25 17 26
REMARK H PARENT 8 18
ROOT
ATOM      1  C   UNL     1       0.693   0.549   1.707  1.00  0.00     0.299 C 
ENDROOT
BRANCH   1   2
ATOM      2  C   UNL     1       2.191   0.479   1.621  1.00  0.00     0.010 A 
ATOM      3  C   UNL     1       5.010   0.338   1.357  1.00  0.00     0.160 A 
ATOM      4  C   UNL     1       4.375   1.538   1.707  1.00  0.00     0.051 A 
ATOM      5  C   UNL     1       4.221  -0.807   1.159  1.00  0.00     0.161 A 
ATOM      6  C   UNL     1       2.983   1.610   1.839  1.00  0.00     0.013 A 
ATOM      7  C   UNL     1       2.826  -0.723   1.285  1.00  0.00     0.060 A 
BRANCH   3   8
ATOM      8  O   UNL     1       6.359   0.230   1.162  1.00  0.00    -0.493 OA
ATOM      9  C   UNL     1       7.181   1.353   1.458  1.00  0.00     0.278 C 
ENDBRANCH   3   8
BRANCH   5  10
ATOM     10  O   UNL     1       4.631  -2.065   0.801  1.00  0.00    -0.493 OA
ATOM     11  C   UNL     1       5.970  -2.438   1.107  1.00  0.00     0.278 C 
ENDBRANCH   5  10
ENDBRANCH   1   2
BRANCH   1  12
ATOM     12  N   UNL     1       0.065   1.206   0.500  1.00  0.00    -0.328 N 
ATOM     13  C   UNL     1      -1.394   1.595   0.723  1.00  0.00     0.284 C 
ATOM     14  C   UNL     1       0.196   0.411  -0.799  1.00  0.00     0.284 C 
ATOM     15  C   UNL     1      -2.312   0.358   0.748  1.00  0.00     0.178 C 
ATOM     16  C   UNL     1      -0.744  -0.811  -0.829  1.00  0.00     0.178 C 
ATOM     17  N   UNL     1      -2.130  -0.477  -0.455  1.00  0.00    -0.360 N 
ATOM     18  H   UNL     1       0.584   2.079   0.351  1.00  0.00     0.348 HD
BRANCH  17  19
ATOM     19  C   UNL     1      -3.099  -0.299  -1.450  1.00  0.00     0.040 A 
ATOM     20  C   UNL     1      -2.794   0.326  -2.671  1.00  0.00     0.026 A 
ATOM     21  C   UNL     1      -4.434  -0.740  -1.243  1.00  0.00    -0.025 A 
ATOM     22  C   UNL     1      -3.772   0.562  -3.636  1.00  0.00     0.002 A 
ATOM     23  C   UNL     1      -5.436  -0.463  -2.209  1.00  0.00    -0.046 A 
ATOM     24  C   UNL     1      -5.086   0.179  -3.402  1.00  0.00     0.004 A 
ATOM     25  C   UNL     1      -4.810  -1.522  -0.003  1.00  0.00     0.047 C 
ATOM     26  C   UNL     1      -6.869  -0.887  -2.017  1.00  0.00     0.044 C 
ENDBRANCH  17  19
ENDBRANCH   1  12
TORSDOF 5
