REMARK SMILES CCN(CC)S(=O)(=O)c1ccc(C(=O)Nc2ccc3c(c2)OCCO3)cc1
REMARK SMILES IDX 6 1 7 2 8 3 3 4 2 5 1 6 4 7 5 8 9 9 10 10 27 11 11 12 26 13
REMARK SMILES IDX 12 14 13 15 14 16 15 17 16 19 17 20 21 21 18 22 20 23 19 24
REMARK SMILES IDX 22 25 25 26 23 27 24 28
REMARK H PARENT 15 18
ROOT
ATOM      1  S   UNL     1      -4.384   0.705  -1.964  1.00  0.00     0.243 S 
ATOM      2  O   UNL     1      -4.535  -0.261  -3.032  1.00  0.00    -0.207 OA
ATOM      3  O   UNL     1      -4.815   2.076  -2.130  1.00  0.00    -0.207 OA
ENDROOT
BRANCH   1   4
ATOM      4  N   UNL     1      -5.123   0.075  -0.564  1.00  0.00    -0.198 NA
BRANCH   4   5
ATOM      5  C   UNL     1      -5.246   0.983   0.602  1.00  0.00     0.099 C 
ATOM      6  C   UNL     1      -6.662   1.528   0.671  1.00  0.00     0.022 C 
ENDBRANCH   4   5
BRANCH   4   7
ATOM      7  C   UNL     1      -4.842  -1.341  -0.230  1.00  0.00     0.099 C 
ATOM      8  C   UNL     1      -6.087  -2.012   0.328  1.00  0.00     0.022 C 
ENDBRANCH   4   7
ENDBRANCH   1   4
BRANCH   1   9
ATOM      9  C   UNL     1      -2.652   0.736  -1.527  1.00  0.00     0.082 A 
ATOM     10  C   UNL     1      -1.850  -0.376  -1.805  1.00  0.00     0.022 A 
ATOM     11  C   UNL     1      -2.091   1.899  -0.992  1.00  0.00     0.022 A 
ATOM     12  C   UNL     1      -0.486  -0.343  -1.500  1.00  0.00     0.015 A 
ATOM     13  C   UNL     1      -0.729   1.929  -0.684  1.00  0.00     0.015 A 
ATOM     14  C   UNL     1       0.076   0.804  -0.919  1.00  0.00     0.040 A 
BRANCH  14  15
ATOM     15  C   UNL     1       1.527   0.888  -0.582  1.00  0.00     0.255 C 
ATOM     16  O   UNL     1       2.076   1.980  -0.668  1.00  0.00    -0.269 OA
ATOM     17  N   UNL     1       2.099  -0.297  -0.157  1.00  0.00    -0.322 N 
ATOM     18  H   UNL     1       1.480  -1.082  -0.009  1.00  0.00     0.170 HD
BRANCH  17  19
ATOM     19  C   UNL     1       3.451  -0.520   0.185  1.00  0.00     0.045 A 
ATOM     20  C   UNL     1       3.781  -1.793   0.674  1.00  0.00     0.030 A 
ATOM     21  C   UNL     1       4.460   0.437   0.057  1.00  0.00     0.076 A 
ATOM     22  C   UNL     1       5.097  -2.106   1.026  1.00  0.00     0.052 A 
ATOM     23  C   UNL     1       5.773   0.129   0.420  1.00  0.00     0.163 A 
ATOM     24  C   UNL     1       6.096  -1.149   0.885  1.00  0.00     0.161 A 
ATOM     25  O   UNL     1       6.702   1.131   0.284  1.00  0.00    -0.486 OA
ATOM     26  O   UNL     1       7.368  -1.529   1.226  1.00  0.00    -0.486 OA
ATOM     27  C   UNL     1       7.906   0.829   0.997  1.00  0.00     0.271 C 
ATOM     28  C   UNL     1       8.340  -0.602   0.728  1.00  0.00     0.271 C 
ENDBRANCH  17  19
ENDBRANCH  14  15
ENDBRANCH   1   9
TORSDOF 6
