REMARK SMILES COc1ccc(C2=Nn3c(nnc3-c3ccccc3OC)SC2)cc1OC
REMARK SMILES IDX 7 1 8 2 9 3 10 4 11 5 12 6 13 7 22 8 23 9 6 10 3 11 4 12
REMARK SMILES IDX 25 13 5 14 24 15 2 16 1 17 26 18 27 19 14 20 15 21 19 22
REMARK SMILES IDX 16 23 18 24 17 25 20 26 21 27
REMARK H PARENT
ROOT
ATOM      1  C   UNL     1      -0.456  -1.542  -0.197  1.00  0.00     0.079 C 
ATOM      2  N   UNL     1       0.705  -1.030   0.097  1.00  0.00    -0.168 NA
ATOM      3  N   UNL     1       1.742  -1.888   0.341  1.00  0.00    -0.186 N 
ATOM      4  C   UNL     1       1.826  -3.237   0.106  1.00  0.00     0.212 A 
ATOM      5  N   UNL     1       2.971  -3.721   0.514  1.00  0.00    -0.121 NA
ATOM      6  N   UNL     1       3.694  -2.666   1.022  1.00  0.00    -0.127 NA
ATOM      7  C   UNL     1       2.983  -1.559   0.867  1.00  0.00     0.189 A 
ATOM      8  S   UNL     1       0.551  -4.083  -0.677  1.00  0.00    -0.078 SA
ATOM      9  C   UNL     1      -0.812  -3.023  -0.163  1.00  0.00     0.137 C 
ENDROOT
BRANCH   1  10
ATOM     10  C   UNL     1      -1.558  -0.579  -0.526  1.00  0.00     0.003 A 
ATOM     11  C   UNL     1      -3.556   1.288  -1.169  1.00  0.00     0.160 A 
ATOM     12  C   UNL     1      -2.212   1.582  -1.415  1.00  0.00     0.051 A 
ATOM     13  C   UNL     1      -3.903   0.051  -0.586  1.00  0.00     0.161 A 
ATOM     14  C   UNL     1      -1.219   0.655  -1.093  1.00  0.00     0.014 A 
ATOM     15  C   UNL     1      -2.901  -0.874  -0.264  1.00  0.00     0.060 A 
BRANCH  11  16
ATOM     16  O   UNL     1      -4.599   2.133  -1.455  1.00  0.00    -0.493 OA
ATOM     17  C   UNL     1      -4.288   3.398  -2.021  1.00  0.00     0.278 C 
ENDBRANCH  11  16
BRANCH  13  18
ATOM     18  O   UNL     1      -5.244  -0.152  -0.369  1.00  0.00    -0.493 OA
ATOM     19  C   UNL     1      -5.650  -1.380   0.216  1.00  0.00     0.278 C 
ENDBRANCH  13  18
ENDBRANCH   1  10
BRANCH   7  20
ATOM     20  C   UNL     1       3.408  -0.213   1.237  1.00  0.00     0.063 A 
ATOM     21  C   UNL     1       3.879   0.017   2.539  1.00  0.00     0.016 A 
ATOM     22  C   UNL     1       3.395   0.860   0.332  1.00  0.00     0.129 A 
ATOM     23  C   UNL     1       4.276   1.296   2.940  1.00  0.00     0.001 A 
ATOM     24  C   UNL     1       3.769   2.145   0.739  1.00  0.00     0.047 A 
ATOM     25  C   UNL     1       4.212   2.360   2.042  1.00  0.00     0.004 A 
BRANCH  22  26
ATOM     26  O   UNL     1       2.985   0.697  -0.968  1.00  0.00    -0.496 OA
ATOM     27  C   UNL     1       4.106   0.376  -1.796  1.00  0.00     0.278 C 
ENDBRANCH  22  26
ENDBRANCH   7  20
TORSDOF 5
