REMARK SMILES N#Cc1cccc(-c2nc(NCc3ccccc3)c3ccccc3n2)c1
REMARK SMILES IDX 11 1 10 3 8 4 9 5 25 6 24 7 19 8 23 9 20 10 22 11 21 12 7 13
REMARK SMILES IDX 1 14 2 15 3 16 4 17 26 18 5 19 6 20 12 21 13 22 14 23 18 24
REMARK SMILES IDX 15 25 17 26 16 27
REMARK H PARENT 11 2
ROOT
ATOM      1  N   UNL     1       1.485  -0.529   0.184  1.00  0.00    -0.365 N 
ATOM      2  H   UNL     1       1.891  -0.928   1.025  1.00  0.00     0.162 HD
ENDROOT
BRANCH   1   3
ATOM      3  C   UNL     1       0.139  -0.935   0.075  1.00  0.00     0.138 A 
ATOM      4  C   UNL     1      -2.079  -0.408  -0.223  1.00  0.00     0.162 A 
ATOM      5  N   UNL     1      -0.804   0.002  -0.122  1.00  0.00    -0.211 NA
ATOM      6  N   UNL     1      -2.478  -1.687  -0.141  1.00  0.00    -0.228 NA
ATOM      7  C   UNL     1      -1.534  -2.616   0.031  1.00  0.00     0.076 A 
ATOM      8  C   UNL     1      -0.174  -2.304   0.141  1.00  0.00     0.043 A 
ATOM      9  C   UNL     1      -1.920  -3.950   0.100  1.00  0.00     0.029 A 
ATOM     10  C   UNL     1       0.770  -3.352   0.298  1.00  0.00     0.014 A 
ATOM     11  C   UNL     1      -0.992  -4.981   0.266  1.00  0.00     0.002 A 
ATOM     12  C   UNL     1       0.360  -4.681   0.362  1.00  0.00     0.001 A 
BRANCH   4  13
ATOM     13  C   UNL     1      -3.115   0.626  -0.432  1.00  0.00     0.021 A 
ATOM     14  N   UNL     1      -3.079   5.471  -0.915  1.00  0.00    -0.192 NA
ATOM     15  C   UNL     1      -3.382   4.353  -0.836  1.00  0.00     0.099 C 
ATOM     16  C   UNL     1      -3.759   2.974  -0.735  1.00  0.00     0.053 A 
ATOM     17  C   UNL     1      -5.103   2.607  -0.831  1.00  0.00     0.019 A 
ATOM     18  C   UNL     1      -2.779   1.991  -0.538  1.00  0.00     0.031 A 
ATOM     19  C   UNL     1      -5.463   1.266  -0.730  1.00  0.00     0.002 A 
ATOM     20  C   UNL     1      -4.479   0.291  -0.534  1.00  0.00     0.012 A 
ENDBRANCH   4  13
ENDBRANCH   1   3
BRANCH   1  21
ATOM     21  C   UNL     1       1.706   0.911   0.135  1.00  0.00     0.150 C 
BRANCH  21  22
ATOM     22  C   UNL     1       3.178   1.184   0.341  1.00  0.00    -0.029 A 
ATOM     23  C   UNL     1       3.643   1.759   1.532  1.00  0.00     0.005 A 
ATOM     24  C   UNL     1       4.107   0.845  -0.655  1.00  0.00     0.005 A 
ATOM     25  C   UNL     1       5.005   1.999   1.718  1.00  0.00     0.000 A 
ATOM     26  C   UNL     1       5.468   1.085  -0.468  1.00  0.00     0.000 A 
ATOM     27  C   UNL     1       5.917   1.663   0.718  1.00  0.00     0.000 A 
ENDBRANCH  21  22
ENDBRANCH   1  21
TORSDOF 4
