REMARK SMILES CC[NH+](CC)CCSc1nc(O)c(-c2ccccc2)c(O)n1
REMARK SMILES IDX 7 1 6 2 3 3 2 5 1 6 4 7 5 8 8 9 9 10 10 11 22 12 11 13 20 14
REMARK SMILES IDX 13 15 12 16 21 18 14 20 15 21 19 22 16 23 18 24 17 25
REMARK H PARENT 3 4 12 17 21 19
ROOT
ATOM      1  C   UNL     1      -1.668   1.090  -0.689  1.00  0.00     0.139 C 
ENDROOT
BRANCH   1   2
ATOM      2  C   UNL     1      -3.165   1.104  -1.019  1.00  0.00     0.273 C 
BRANCH   2   3
ATOM      3  N   UNL     1      -3.825  -0.263  -0.826  1.00  0.00    -0.335 N 
ATOM      4  H   UNL     1      -3.174  -0.919  -1.289  1.00  0.00     0.348 HD
BRANCH   3   5
ATOM      5  C   UNL     1      -5.117  -0.363  -1.615  1.00  0.00     0.258 C 
ATOM      6  C   UNL     1      -5.634  -1.789  -1.660  1.00  0.00     0.071 C 
ENDBRANCH   3   5
BRANCH   3   7
ATOM      7  C   UNL     1      -3.900  -0.732   0.615  1.00  0.00     0.258 C 
ATOM      8  C   UNL     1      -4.888   0.063   1.448  1.00  0.00     0.071 C 
ENDBRANCH   3   7
ENDBRANCH   2   3
ENDBRANCH   1   2
BRANCH   1   9
ATOM      9  S   UNL     1      -0.836  -0.268  -1.580  1.00  0.00    -0.080 SA
BRANCH   9  10
ATOM     10  C   UNL     1       0.814  -0.098  -0.938  1.00  0.00     0.194 A 
ATOM     11  N   UNL     1       1.167   1.064  -0.374  1.00  0.00    -0.187 NA
ATOM     12  N   UNL     1       1.599  -1.173  -1.052  1.00  0.00    -0.187 NA
ATOM     13  C   UNL     1       2.430   1.113   0.088  1.00  0.00     0.226 A 
ATOM     14  C   UNL     1       2.843  -1.036  -0.563  1.00  0.00     0.226 A 
ATOM     15  C   UNL     1       3.362   0.093   0.040  1.00  0.00     0.106 A 
BRANCH  13  16
ATOM     16  O   UNL     1       2.740   2.326   0.623  1.00  0.00    -0.493 OA
ATOM     17  H   UNL     1       1.946   2.852   0.433  1.00  0.00     0.295 HD
ENDBRANCH  13  16
BRANCH  14  18
ATOM     18  O   UNL     1       3.581  -2.170  -0.704  1.00  0.00    -0.493 OA
ATOM     19  H   UNL     1       2.958  -2.765  -1.155  1.00  0.00     0.295 HD
ENDBRANCH  14  18
BRANCH  15  20
ATOM     20  C   UNL     1       4.735   0.198   0.561  1.00  0.00    -0.007 A 
ATOM     21  C   UNL     1       5.844  -0.132  -0.237  1.00  0.00     0.009 A 
ATOM     22  C   UNL     1       4.985   0.632   1.875  1.00  0.00     0.009 A 
ATOM     23  C   UNL     1       7.149  -0.032   0.256  1.00  0.00     0.001 A 
ATOM     24  C   UNL     1       6.289   0.733   2.370  1.00  0.00     0.001 A 
ATOM     25  C   UNL     1       7.370   0.400   1.560  1.00  0.00     0.000 A 
ENDBRANCH  15  20
ENDBRANCH   9  10
ENDBRANCH   1   9
TORSDOF 9
