REMARK SMILES COc1ccccc1N1CC[NH+](Cc2cccc(OC)c2OC)CC1
REMARK SMILES IDX 9 1 10 2 11 3 12 4 24 5 25 6 8 8 3 9 4 10 5 11 7 12 6 13
REMARK SMILES IDX 2 14 1 15 13 16 14 17 15 18 21 19 16 20 18 21 17 22 22 23
REMARK SMILES IDX 23 24 19 25 20 26
REMARK H PARENT 12 7
ROOT
ATOM      1  N   UNL     1      -2.329   0.891  -1.002  1.00  0.00    -0.357 N 
ATOM      2  C   UNL     1      -1.316   1.347  -0.027  1.00  0.00     0.178 C 
ATOM      3  C   UNL     1       0.082   1.356  -0.679  1.00  0.00     0.284 C 
ATOM      4  N   UNL     1       0.416   0.003  -1.298  1.00  0.00    -0.328 N 
ATOM      5  C   UNL     1      -0.662  -0.411  -2.288  1.00  0.00     0.284 C 
ATOM      6  C   UNL     1      -2.056  -0.420  -1.627  1.00  0.00     0.178 C 
ATOM      7  H   UNL     1       1.288   0.135  -1.835  1.00  0.00     0.348 HD
ENDROOT
BRANCH   1   8
ATOM      8  C   UNL     1      -3.645   0.968  -0.477  1.00  0.00     0.080 A 
ATOM      9  C   UNL     1      -4.136   0.191   0.602  1.00  0.00     0.142 A 
ATOM     10  C   UNL     1      -5.460   0.363   1.026  1.00  0.00     0.048 A 
ATOM     11  C   UNL     1      -6.296   1.290   0.397  1.00  0.00     0.004 A 
ATOM     12  C   UNL     1      -4.505   1.893  -1.094  1.00  0.00     0.030 A 
ATOM     13  C   UNL     1      -5.819   2.054  -0.662  1.00  0.00     0.002 A 
BRANCH   9  14
ATOM     14  O   UNL     1      -3.257  -0.701   1.175  1.00  0.00    -0.495 OA
ATOM     15  C   UNL     1      -3.744  -1.488   2.257  1.00  0.00     0.278 C 
ENDBRANCH   9  14
ENDBRANCH   1   8
BRANCH   4  16
ATOM     16  C   UNL     1       0.760  -1.076  -0.301  1.00  0.00     0.303 C 
BRANCH  16  17
ATOM     17  C   UNL     1       2.031  -0.804   0.462  1.00  0.00     0.052 A 
ATOM     18  C   UNL     1       2.025  -0.840   1.863  1.00  0.00     0.014 A 
ATOM     19  C   UNL     1       3.238  -0.532  -0.217  1.00  0.00     0.169 A 
ATOM     20  C   UNL     1       3.193  -0.579   2.573  1.00  0.00     0.005 A 
ATOM     21  C   UNL     1       4.410  -0.225   0.500  1.00  0.00     0.161 A 
ATOM     22  C   UNL     1       4.375  -0.265   1.897  1.00  0.00     0.050 A 
BRANCH  19  23
ATOM     23  O   UNL     1       3.131  -0.519  -1.593  1.00  0.00    -0.492 OA
ATOM     24  C   UNL     1       4.226  -1.127  -2.287  1.00  0.00     0.278 C 
ENDBRANCH  19  23
BRANCH  21  25
ATOM     25  O   UNL     1       5.512   0.137  -0.226  1.00  0.00    -0.493 OA
ATOM     26  C   UNL     1       6.713   0.431   0.482  1.00  0.00     0.278 C 
ENDBRANCH  21  25
ENDBRANCH  16  17
ENDBRANCH   4  16
TORSDOF 6
