REMARK SMILES N#Cc1cccc(-c2nccc(NCc3ccccc3)n2)c1
REMARK SMILES IDX 13 1 12 3 8 4 9 5 21 6 10 7 11 8 7 9 1 10 2 11 3 12 4 13
REMARK SMILES IDX 22 14 5 15 6 16 14 17 15 18 16 19 20 20 17 21 19 22 18 23
REMARK H PARENT 13 2
ROOT
ATOM      1  N   UNL     1      -1.363  -0.160  -0.925  1.00  0.00    -0.366 N 
ATOM      2  H   UNL     1      -1.127   0.632  -0.328  1.00  0.00     0.162 HD
ENDROOT
BRANCH   1   3
ATOM      3  C   UNL     1      -0.155  -0.818  -1.160  1.00  0.00     0.130 A 
ATOM      4  C   UNL     1       2.115  -0.863  -0.817  1.00  0.00     0.161 A 
ATOM      5  N   UNL     1       2.282  -1.973  -1.561  1.00  0.00    -0.236 NA
ATOM      6  N   UNL     1       0.928  -0.265  -0.597  1.00  0.00    -0.211 NA
ATOM      7  C   UNL     1       1.173  -2.484  -2.120  1.00  0.00     0.117 A 
ATOM      8  C   UNL     1      -0.078  -1.943  -1.952  1.00  0.00     0.067 A 
BRANCH   4   9
ATOM      9  C   UNL     1       3.313  -0.262  -0.194  1.00  0.00     0.021 A 
ATOM     10  N   UNL     1       4.133   3.616   2.637  1.00  0.00    -0.192 NA
ATOM     11  C   UNL     1       4.231   2.659   1.988  1.00  0.00     0.099 C 
ATOM     12  C   UNL     1       4.358   1.475   1.189  1.00  0.00     0.053 A 
ATOM     13  C   UNL     1       5.611   0.888   1.004  1.00  0.00     0.019 A 
ATOM     14  C   UNL     1       3.224   0.904   0.595  1.00  0.00     0.031 A 
ATOM     15  C   UNL     1       5.728  -0.262   0.229  1.00  0.00     0.002 A 
ATOM     16  C   UNL     1       4.593  -0.827  -0.360  1.00  0.00     0.012 A 
ENDBRANCH   4   9
ENDBRANCH   1   3
BRANCH   1  17
ATOM     17  C   UNL     1      -2.386  -0.987  -0.297  1.00  0.00     0.150 C 
BRANCH  17  18
ATOM     18  C   UNL     1      -3.530  -0.109   0.154  1.00  0.00    -0.029 A 
ATOM     19  C   UNL     1      -4.372   0.498  -0.790  1.00  0.00     0.005 A 
ATOM     20  C   UNL     1      -3.757   0.129   1.517  1.00  0.00     0.005 A 
ATOM     21  C   UNL     1      -5.426   1.315  -0.379  1.00  0.00     0.000 A 
ATOM     22  C   UNL     1      -4.813   0.946   1.926  1.00  0.00     0.000 A 
ATOM     23  C   UNL     1      -5.647   1.537   0.979  1.00  0.00     0.000 A 
ENDBRANCH  17  18
ENDBRANCH   1  17
TORSDOF 4
