REMARK SMILES O=C(Nc1ccc(F)c(F)c1)c1ccc(F)c(S(=O)(=O)N2CCOCC2)c1
REMARK SMILES IDX 12 1 13 2 14 3 15 4 16 5 17 6 27 7 2 8 1 9 3 10 4 12 5 13
REMARK SMILES IDX 11 14 6 15 9 16 7 17 10 18 8 19 18 20 19 21 20 22 21 23
REMARK SMILES IDX 22 24 26 25 23 26 25 27 24 28
REMARK H PARENT 3 11
ROOT
ATOM      1  C   UNL     1       0.931   0.571  -0.111  1.00  0.00     0.041 A 
ATOM      2  C   UNL     1       0.766   1.858  -0.644  1.00  0.00     0.017 A 
ATOM      3  C   UNL     1      -0.429   2.550  -0.431  1.00  0.00     0.041 A 
ATOM      4  C   UNL     1      -1.455   1.960   0.304  1.00  0.00     0.143 A 
ATOM      5  F   UNL     1      -2.591   2.647   0.475  1.00  0.00    -0.206 F 
ATOM      6  C   UNL     1      -1.298   0.679   0.819  1.00  0.00     0.119 A 
ATOM      7  C   UNL     1      -0.107  -0.026   0.616  1.00  0.00     0.038 A 
ENDROOT
BRANCH   1   8
ATOM      8  C   UNL     1       2.178  -0.210  -0.339  1.00  0.00     0.255 C 
ATOM      9  O   UNL     1       2.069  -1.413  -0.537  1.00  0.00    -0.269 OA
ATOM     10  N   UNL     1       3.346   0.525  -0.270  1.00  0.00    -0.322 N 
ATOM     11  H   UNL     1       3.267   1.491   0.025  1.00  0.00     0.170 HD
BRANCH  10  12
ATOM     12  C   UNL     1       4.661   0.056  -0.479  1.00  0.00     0.044 A 
ATOM     13  C   UNL     1       4.971  -1.250  -0.877  1.00  0.00     0.029 A 
ATOM     14  C   UNL     1       5.705   0.969  -0.280  1.00  0.00     0.068 A 
ATOM     15  C   UNL     1       6.302  -1.641  -1.070  1.00  0.00     0.044 A 
ATOM     16  C   UNL     1       7.026   0.573  -0.474  1.00  0.00     0.160 A 
ATOM     17  C   UNL     1       7.324  -0.724  -0.866  1.00  0.00     0.158 A 
ATOM     18  F   UNL     1       8.010   1.462  -0.278  1.00  0.00    -0.204 F 
ATOM     19  F   UNL     1       8.596  -1.100  -1.052  1.00  0.00    -0.204 F 
ENDBRANCH  10  12
ENDBRANCH   1   8
BRANCH   6  20
ATOM     20  S   UNL     1      -2.610  -0.032   1.753  1.00  0.00     0.246 S 
ATOM     21  O   UNL     1      -2.999   0.928   2.762  1.00  0.00    -0.207 OA
ATOM     22  O   UNL     1      -2.222  -1.378   2.124  1.00  0.00    -0.207 OA
BRANCH  20  23
ATOM     23  N   UNL     1      -3.865  -0.180   0.614  1.00  0.00    -0.193 NA
ATOM     24  C   UNL     1      -3.644  -1.170  -0.490  1.00  0.00     0.131 C 
ATOM     25  C   UNL     1      -5.217  -0.327   1.245  1.00  0.00     0.131 C 
ATOM     26  C   UNL     1      -4.505  -2.420  -0.289  1.00  0.00     0.177 C 
ATOM     27  C   UNL     1      -6.232  -0.835   0.217  1.00  0.00     0.177 C 
ATOM     28  O   UNL     1      -5.911  -2.136  -0.297  1.00  0.00    -0.379 OA
ENDBRANCH  20  23
ENDBRANCH   6  20
TORSDOF 4
