REMARK SMILES COc1ccc(-c2nc(C#N)c(NCCC[NH+](C)C)o2)cc1OC
REMARK SMILES IDX 13 1 12 3 7 4 8 5 20 6 9 7 10 8 11 9 6 10 3 11 4 12 22 13
REMARK SMILES IDX 5 14 21 15 2 16 1 17 23 18 24 19 14 20 15 21 16 22 17 23
REMARK SMILES IDX 18 24 19 25
REMARK H PARENT 13 2 17 26
ROOT
ATOM      1  N   UNL     1       1.918   0.819  -0.383  1.00  0.00    -0.353 N 
ATOM      2  H   UNL     1       1.822   1.389   0.460  1.00  0.00     0.163 HD
ENDROOT
BRANCH   1   3
ATOM      3  C   UNL     1       0.712   0.476  -0.906  1.00  0.00     0.232 A 
ATOM      4  C   UNL     1      -1.432   0.162  -0.726  1.00  0.00     0.230 A 
ATOM      5  N   UNL     1      -1.183  -0.140  -1.986  1.00  0.00    -0.196 NA
ATOM      6  O   UNL     1      -0.323   0.544  -0.015  1.00  0.00    -0.419 OA
ATOM      7  C   UNL     1       0.170   0.062  -2.108  1.00  0.00     0.204 A 
ATOM      8  C   UNL     1       0.839  -0.149  -3.348  1.00  0.00     0.125 C 
ATOM      9  N   UNL     1       1.463  -0.307  -4.315  1.00  0.00    -0.190 NA
BRANCH   4  10
ATOM     10  C   UNL     1      -2.705   0.138  -0.009  1.00  0.00     0.041 A 
ATOM     11  C   UNL     1      -5.190   0.069   1.328  1.00  0.00     0.160 A 
ATOM     12  C   UNL     1      -4.034   0.468   2.003  1.00  0.00     0.051 A 
ATOM     13  C   UNL     1      -5.107  -0.300  -0.029  1.00  0.00     0.161 A 
ATOM     14  C   UNL     1      -2.803   0.502   1.340  1.00  0.00     0.018 A 
ATOM     15  C   UNL     1      -3.870  -0.263  -0.683  1.00  0.00     0.064 A 
BRANCH  11  16
ATOM     16  O   UNL     1      -6.437   0.003   1.896  1.00  0.00    -0.493 OA
ATOM     17  C   UNL     1      -6.571   0.394   3.255  1.00  0.00     0.278 C 
ENDBRANCH  11  16
BRANCH  13  18
ATOM     18  O   UNL     1      -6.286  -0.681  -0.621  1.00  0.00    -0.493 OA
ATOM     19  C   UNL     1      -6.258  -1.028  -1.998  1.00  0.00     0.278 C 
ENDBRANCH  13  18
ENDBRANCH   4  10
ENDBRANCH   1   3
BRANCH   1  20
ATOM     20  C   UNL     1       3.045   1.185  -1.225  1.00  0.00     0.122 C 
BRANCH  20  21
ATOM     21  C   UNL     1       3.894  -0.035  -1.587  1.00  0.00     0.083 C 
BRANCH  21  22
ATOM     22  C   UNL     1       4.426  -0.846  -0.407  1.00  0.00     0.263 C 
BRANCH  22  23
ATOM     23  N   UNL     1       5.551  -0.123   0.315  1.00  0.00    -0.340 N 
ATOM     24  C   UNL     1       5.121   0.432   1.647  1.00  0.00     0.332 C 
ATOM     25  C   UNL     1       6.772  -0.996   0.469  1.00  0.00     0.332 C 
ATOM     26  H   UNL     1       5.855   0.672  -0.262  1.00  0.00     0.347 HD
ENDBRANCH  22  23
ENDBRANCH  21  22
ENDBRANCH  20  21
ENDBRANCH   1  20
TORSDOF 8
