REMARK SMILES C=CCSc1nc2c(c(=O)[nH]c(=O)n2C)n1CC
REMARK SMILES IDX 5 1 6 2 7 3 8 4 9 5 10 6 11 7 12 8 13 9 14 10 15 11 16 12
REMARK SMILES IDX 4 14 3 15 2 16 1 17 17 18 18 19
REMARK H PARENT 11 13
ROOT
ATOM      1  C   UNL     1       0.798   0.439   0.517  1.00  0.00     0.171 A 
ATOM      2  N   UNL     1       0.529  -0.842   0.372  1.00  0.00    -0.204 NA
ATOM      3  C   UNL     1      -0.811  -0.933   0.571  1.00  0.00     0.169 A 
ATOM      4  C   UNL     1      -1.373   0.282   0.843  1.00  0.00     0.153 A 
ATOM      5  C   UNL     1      -2.767   0.442   1.072  1.00  0.00     0.279 A 
ATOM      6  O   UNL     1      -3.331   1.505   1.302  1.00  0.00    -0.267 OA
ATOM      7  N   UNL     1      -3.452  -0.751   1.005  1.00  0.00    -0.272 N 
ATOM      8  C   UNL     1      -2.933  -2.004   0.733  1.00  0.00     0.329 A 
ATOM      9  O   UNL     1      -3.697  -2.968   0.700  1.00  0.00    -0.248 OA
ATOM     10  N   UNL     1      -1.563  -2.087   0.511  1.00  0.00    -0.279 N 
ATOM     11  C   UNL     1      -0.937  -3.361   0.217  1.00  0.00     0.157 C 
ATOM     12  N   UNL     1      -0.329   1.172   0.820  1.00  0.00    -0.313 N 
ATOM     13  H   UNL     1      -4.447  -0.710   1.156  1.00  0.00     0.175 HD
ENDROOT
BRANCH   1  14
ATOM     14  S   UNL     1       2.369   1.153   0.350  1.00  0.00    -0.084 SA
BRANCH  14  15
ATOM     15  C   UNL     1       3.336  -0.223  -0.330  1.00  0.00     0.105 C 
BRANCH  15  16
ATOM     16  C   UNL     1       3.059  -0.387  -1.795  1.00  0.00    -0.024 C 
ATOM     17  C   UNL     1       3.944  -0.145  -2.771  1.00  0.00     0.005 C 
ENDBRANCH  15  16
ENDBRANCH  14  15
ENDBRANCH   1  14
BRANCH  12  18
ATOM     18  C   UNL     1      -0.426   2.598   1.071  1.00  0.00     0.122 C 
ATOM     19  C   UNL     1      -0.736   3.388  -0.189  1.00  0.00     0.028 C 
ENDBRANCH  12  18
TORSDOF 4
