REMARK SMILES Cc1cc2c(cc1S(=O)(=O)Nc1ccc(F)cc1)n(C)c(=O)c(=O)n2C
REMARK SMILES IDX 8 1 9 2 10 3 7 4 2 5 3 6 4 7 6 8 5 9 25 10 19 11 23 12 21 13
REMARK SMILES IDX 24 14 22 15 1 16 26 17 20 18 11 19 12 21 13 22 18 23 14 24
REMARK SMILES IDX 17 25 15 26 16 27
REMARK H PARENT 11 20
ROOT
ATOM      1  S   UNL     1       1.308  -2.230  -0.944  1.00  0.00     0.262 S 
ATOM      2  O   UNL     1       2.030  -2.931   0.092  1.00  0.00    -0.201 OA
ATOM      3  O   UNL     1       0.741  -2.959  -2.060  1.00  0.00    -0.201 OA
ENDROOT
BRANCH   1   4
ATOM      4  C   UNL     1      -0.009  -1.244  -0.245  1.00  0.00     0.092 A 
ATOM      5  C   UNL     1      -0.134  -0.974   1.122  1.00  0.00    -0.028 A 
ATOM      6  C   UNL     1      -1.231  -0.195   1.540  1.00  0.00     0.033 A 
ATOM      7  C   UNL     1      -2.189   0.314   0.638  1.00  0.00     0.068 A 
ATOM      8  C   UNL     1      -0.964  -0.751  -1.153  1.00  0.00     0.051 A 
ATOM      9  C   UNL     1      -2.053   0.029  -0.728  1.00  0.00     0.069 A 
ATOM     10  N   UNL     1      -3.277   1.103   1.101  1.00  0.00    -0.305 N 
ATOM     11  N   UNL     1      -3.003   0.522  -1.663  1.00  0.00    -0.305 N 
ATOM     12  C   UNL     1      -4.234   1.618   0.228  1.00  0.00     0.316 A 
ATOM     13  C   UNL     1      -4.087   1.303  -1.265  1.00  0.00     0.316 A 
ATOM     14  O   UNL     1      -5.183   2.310   0.591  1.00  0.00    -0.263 OA
ATOM     15  O   UNL     1      -4.925   1.751  -2.045  1.00  0.00    -0.263 OA
ATOM     16  C   UNL     1       0.819  -1.474   2.172  1.00  0.00     0.046 C 
ATOM     17  C   UNL     1      -3.427   1.400   2.518  1.00  0.00     0.154 C 
ATOM     18  C   UNL     1      -2.875   0.215  -3.080  1.00  0.00     0.154 C 
ENDBRANCH   1   4
BRANCH   1  19
ATOM     19  N   UNL     1       2.312  -1.053  -1.633  1.00  0.00    -0.280 N 
ATOM     20  H   UNL     1       2.709  -1.395  -2.509  1.00  0.00     0.180 HD
BRANCH  19  21
ATOM     21  C   UNL     1       3.175  -0.326  -0.770  1.00  0.00     0.049 A 
ATOM     22  C   UNL     1       4.406  -0.863  -0.390  1.00  0.00     0.030 A 
ATOM     23  C   UNL     1       2.760   0.914  -0.280  1.00  0.00     0.030 A 
ATOM     24  C   UNL     1       5.229  -0.151   0.484  1.00  0.00     0.041 A 
ATOM     25  C   UNL     1       3.586   1.624   0.592  1.00  0.00     0.041 A 
ATOM     26  C   UNL     1       4.812   1.085   0.966  1.00  0.00     0.123 A 
ATOM     27  F   UNL     1       5.603   1.766   1.805  1.00  0.00    -0.207 F 
ENDBRANCH  19  21
ENDBRANCH   1  19
TORSDOF 3
