REMARK SMILES CCS(=O)(=O)N1CCN(S(=O)(=O)c2ccc(F)cc2)CC1
REMARK SMILES IDX 6 1 7 2 8 3 9 4 20 5 21 6 3 7 4 8 5 9 2 10 1 11 10 12 11 13
REMARK SMILES IDX 12 14 13 15 14 16 19 17 15 18 18 19 16 20 17 21
REMARK H PARENT
ROOT
ATOM      1  N   UNL     1       1.845   0.601  -1.423  1.00  0.00    -0.199 NA
ATOM      2  C   UNL     1       0.811  -0.465  -1.347  1.00  0.00     0.119 C 
ATOM      3  C   UNL     1      -0.571   0.134  -1.058  1.00  0.00     0.119 C 
ATOM      4  N   UNL     1      -0.604   0.863   0.254  1.00  0.00    -0.195 NA
ATOM      5  C   UNL     1       0.700   1.523   0.598  1.00  0.00     0.119 C 
ATOM      6  C   UNL     1       1.549   1.831  -0.640  1.00  0.00     0.119 C 
ENDROOT
BRANCH   1   7
ATOM      7  S   UNL     1       3.448   0.126  -1.621  1.00  0.00     0.213 S 
ATOM      8  O   UNL     1       4.221   1.317  -1.898  1.00  0.00    -0.212 OA
ATOM      9  O   UNL     1       3.455  -1.006  -2.523  1.00  0.00    -0.212 OA
BRANCH   7  10
ATOM     10  C   UNL     1       3.890  -0.458   0.017  1.00  0.00     0.151 C 
ATOM     11  C   UNL     1       5.330  -0.934   0.058  1.00  0.00     0.022 C 
ENDBRANCH   7  10
ENDBRANCH   1   7
BRANCH   4  12
ATOM     12  S   UNL     1      -1.261  -0.010   1.566  1.00  0.00     0.243 S 
ATOM     13  O   UNL     1      -1.216   0.839   2.735  1.00  0.00    -0.207 OA
ATOM     14  O   UNL     1      -0.630  -1.313   1.553  1.00  0.00    -0.207 OA
BRANCH  12  15
ATOM     15  C   UNL     1      -2.965  -0.192   1.107  1.00  0.00     0.082 A 
ATOM     16  C   UNL     1      -3.743   0.959   0.926  1.00  0.00     0.025 A 
ATOM     17  C   UNL     1      -3.516  -1.467   0.938  1.00  0.00     0.025 A 
ATOM     18  C   UNL     1      -5.084   0.828   0.563  1.00  0.00     0.040 A 
ATOM     19  C   UNL     1      -4.858  -1.588   0.575  1.00  0.00     0.040 A 
ATOM     20  C   UNL     1      -5.627  -0.442   0.390  1.00  0.00     0.123 A 
ATOM     21  F   UNL     1      -6.914  -0.564   0.040  1.00  0.00    -0.207 F 
ENDBRANCH  12  15
ENDBRANCH   4  12
TORSDOF 4
