REMARK SMILES Cc1ccc(S(=O)(=O)N2CCN(C(=O)c3ccco3)CC2)cc1
REMARK SMILES IDX 6 1 7 2 8 3 5 4 2 5 3 6 23 7 4 8 22 9 1 10 9 11 10 12 21 13
REMARK SMILES IDX 11 14 20 15 12 16 13 17 14 18 15 19 16 20 19 21 17 22 18 23
REMARK H PARENT
ROOT
ATOM      1  S   UNL     1       1.154  -2.202  -0.161  1.00  0.00     0.243 S 
ATOM      2  O   UNL     1       0.932  -2.788   1.145  1.00  0.00    -0.207 OA
ATOM      3  O   UNL     1       1.059  -2.994  -1.368  1.00  0.00    -0.207 OA
ENDROOT
BRANCH   1   4
ATOM      4  C   UNL     1       2.739  -1.406  -0.170  1.00  0.00     0.082 A 
ATOM      5  C   UNL     1       5.221  -0.128  -0.208  1.00  0.00    -0.051 A 
ATOM      6  C   UNL     1       4.366  -0.044  -1.316  1.00  0.00     0.005 A 
ATOM      7  C   UNL     1       4.829  -0.879   0.908  1.00  0.00     0.005 A 
ATOM      8  C   UNL     1       3.123  -0.679  -1.299  1.00  0.00     0.022 A 
ATOM      9  C   UNL     1       3.587  -1.517   0.933  1.00  0.00     0.022 A 
ATOM     10  C   UNL     1       6.572   0.525  -0.245  1.00  0.00     0.044 C 
ENDBRANCH   1   4
BRANCH   1  11
ATOM     11  N   UNL     1       0.073  -0.887  -0.303  1.00  0.00    -0.194 NA
ATOM     12  C   UNL     1       0.073   0.076   0.848  1.00  0.00     0.124 C 
ATOM     13  C   UNL     1      -1.297  -1.312  -0.734  1.00  0.00     0.124 C 
ATOM     14  C   UNL     1      -1.242   0.060   1.634  1.00  0.00     0.136 C 
ATOM     15  C   UNL     1      -2.321  -0.178  -0.590  1.00  0.00     0.136 C 
ATOM     16  N   UNL     1      -2.392   0.351   0.776  1.00  0.00    -0.333 N 
ATOM     17  C   UNL     1      -3.499   0.999   1.334  1.00  0.00     0.289 C 
ATOM     18  O   UNL     1      -3.543   1.195   2.551  1.00  0.00    -0.265 OA
BRANCH  17  19
ATOM     19  C   UNL     1      -4.589   1.441   0.475  1.00  0.00     0.191 A 
ATOM     20  C   UNL     1      -5.869   1.848   0.815  1.00  0.00     0.056 A 
ATOM     21  O   UNL     1      -4.429   1.574  -0.880  1.00  0.00    -0.459 OA
ATOM     22  C   UNL     1      -6.521   2.218  -0.384  1.00  0.00     0.043 A 
ATOM     23  C   UNL     1      -5.601   2.035  -1.387  1.00  0.00     0.196 A 
ENDBRANCH  17  19
ENDBRANCH   1  11
TORSDOF 3
