REMARK SMILES Cc1ccc(NS(=O)(=O)c2ccc3c(c2)oc(=O)n3C)cc1F
REMARK SMILES IDX 7 1 8 2 9 3 6 4 5 6 2 7 3 8 22 9 4 10 21 11 1 12 23 13 10 14
REMARK SMILES IDX 11 15 15 16 12 17 14 18 13 19 16 20 19 21 17 22 18 23 20 24
REMARK H PARENT 6 5
ROOT
ATOM      1  S   UNL     1       0.287  -2.015  -2.453  1.00  0.00     0.262 S 
ATOM      2  O   UNL     1      -0.359  -2.086  -3.745  1.00  0.00    -0.201 OA
ATOM      3  O   UNL     1       0.821  -3.196  -1.812  1.00  0.00    -0.201 OA
ENDROOT
BRANCH   1   4
ATOM      4  N   UNL     1       1.502  -0.853  -2.595  1.00  0.00    -0.280 N 
ATOM      5  H   UNL     1       1.354  -0.233  -3.390  1.00  0.00     0.180 HD
BRANCH   4   6
ATOM      6  C   UNL     1       2.119  -0.322  -1.428  1.00  0.00     0.052 A 
ATOM      7  C   UNL     1       3.259   0.785   0.884  1.00  0.00    -0.015 A 
ATOM      8  C   UNL     1       2.581   1.601  -0.028  1.00  0.00     0.008 A 
ATOM      9  C   UNL     1       3.374  -0.580   0.605  1.00  0.00     0.128 A 
ATOM     10  C   UNL     1       2.011   1.048  -1.178  1.00  0.00     0.027 A 
ATOM     11  C   UNL     1       2.810  -1.138  -0.538  1.00  0.00     0.066 A 
ATOM     12  C   UNL     1       3.902   1.362   2.108  1.00  0.00     0.047 C 
ATOM     13  F   UNL     1       4.041  -1.377   1.452  1.00  0.00    -0.207 F 
ENDBRANCH   4   6
ENDBRANCH   1   4
BRANCH   1  14
ATOM     14  C   UNL     1      -0.862  -1.249  -1.328  1.00  0.00     0.091 A 
ATOM     15  C   UNL     1      -0.874  -1.639   0.031  1.00  0.00     0.025 A 
ATOM     16  C   UNL     1      -1.754  -0.289  -1.822  1.00  0.00     0.071 A 
ATOM     17  C   UNL     1      -1.770  -1.048   0.927  1.00  0.00     0.032 A 
ATOM     18  C   UNL     1      -2.621   0.275  -0.912  1.00  0.00     0.157 A 
ATOM     19  C   UNL     1      -2.625  -0.093   0.419  1.00  0.00     0.090 A 
ATOM     20  O   UNL     1      -3.564   1.249  -1.201  1.00  0.00    -0.408 OA
ATOM     21  N   UNL     1      -3.603   0.665   1.016  1.00  0.00    -0.277 N 
ATOM     22  C   UNL     1      -4.167   1.470   0.048  1.00  0.00     0.419 A 
ATOM     23  O   UNL     1      -5.067   2.281   0.214  1.00  0.00    -0.223 OA
ATOM     24  C   UNL     1      -3.970   0.616   2.401  1.00  0.00     0.157 C 
ENDBRANCH   1  14
TORSDOF 3
