REMARK SMILES COc1cccc(NS(=O)(=O)c2ccc3c(c2)n(C)c(=O)c(=O)n3C)c1
REMARK SMILES IDX 8 1 7 3 3 4 4 5 26 6 5 7 6 8 2 9 1 10 9 11 10 12 11 13 12 14
REMARK SMILES IDX 13 15 17 16 14 17 16 18 15 19 18 20 24 21 20 22 22 23 21 24
REMARK SMILES IDX 23 25 19 26 25 27
REMARK H PARENT 8 2
ROOT
ATOM      1  N   UNL     1      -1.998  -1.228  -2.403  1.00  0.00    -0.279 N 
ATOM      2  H   UNL     1      -1.946  -2.192  -2.728  1.00  0.00     0.180 HD
ENDROOT
BRANCH   1   3
ATOM      3  C   UNL     1      -2.427  -0.992  -1.067  1.00  0.00     0.052 A 
ATOM      4  C   UNL     1      -3.393   0.461   0.609  1.00  0.00     0.120 A 
ATOM      5  C   UNL     1      -3.122  -0.507   1.579  1.00  0.00     0.046 A 
ATOM      6  C   UNL     1      -3.048   0.211  -0.720  1.00  0.00     0.073 A 
ATOM      7  C   UNL     1      -2.515  -1.714   1.232  1.00  0.00     0.006 A 
ATOM      8  C   UNL     1      -2.166  -1.958  -0.095  1.00  0.00     0.027 A 
BRANCH   4   9
ATOM      9  O   UNL     1      -3.982   1.599   1.085  1.00  0.00    -0.497 OA
ATOM     10  C   UNL     1      -4.288   2.613   0.135  1.00  0.00     0.278 C 
ENDBRANCH   4   9
ENDBRANCH   1   3
BRANCH   1  11
ATOM     11  S   UNL     1      -0.786  -0.259  -3.069  1.00  0.00     0.261 S 
ATOM     12  O   UNL     1      -0.362  -0.922  -4.285  1.00  0.00    -0.201 OA
ATOM     13  O   UNL     1      -1.214   1.123  -3.076  1.00  0.00    -0.201 OA
BRANCH  11  14
ATOM     14  C   UNL     1       0.541  -0.409  -1.891  1.00  0.00     0.090 A 
ATOM     15  C   UNL     1       1.510  -1.390  -2.061  1.00  0.00     0.024 A 
ATOM     16  C   UNL     1       0.620   0.488  -0.822  1.00  0.00     0.050 A 
ATOM     17  C   UNL     1       2.546  -1.489  -1.132  1.00  0.00     0.030 A 
ATOM     18  C   UNL     1       1.650   0.384   0.129  1.00  0.00     0.069 A 
ATOM     19  C   UNL     1       2.630  -0.616  -0.029  1.00  0.00     0.068 A 
ATOM     20  N   UNL     1       1.702   1.270   1.240  1.00  0.00    -0.305 N 
ATOM     21  N   UNL     1       3.687  -0.735   0.913  1.00  0.00    -0.305 N 
ATOM     22  C   UNL     1       2.712   1.189   2.197  1.00  0.00     0.316 A 
ATOM     23  C   UNL     1       3.790   0.114   2.014  1.00  0.00     0.316 A 
ATOM     24  O   UNL     1       2.783   1.929   3.175  1.00  0.00    -0.263 OA
ATOM     25  O   UNL     1       4.693   0.042   2.844  1.00  0.00    -0.263 OA
ATOM     26  C   UNL     1       0.675   2.285   1.423  1.00  0.00     0.154 C 
ATOM     27  C   UNL     1       4.712  -1.755   0.748  1.00  0.00     0.154 C 
ENDBRANCH  11  14
ENDBRANCH   1  11
TORSDOF 4
