REMARK SMILES CCNC(=S)N1CCN(S(=O)(=O)c2ccc(C)c(C)c2)CC1
REMARK SMILES IDX 3 1 4 2 5 3 6 4 7 5 8 6 9 7 21 8 22 9 2 11 1 12 10 13 11 14
REMARK SMILES IDX 12 15 13 16 14 17 20 18 15 19 18 20 16 21 19 22 17 23
REMARK H PARENT 3 10
ROOT
ATOM      1  N   UNL     1       4.672  -0.720  -0.631  1.00  0.00    -0.363 N 
ATOM      2  C   UNL     1       4.197  -0.386   0.608  1.00  0.00     0.169 C 
ATOM      3  S   UNL     1       5.100  -0.911   1.918  1.00  0.00    -0.041 S 
ATOM      4  N   UNL     1       3.012   0.322   0.673  1.00  0.00    -0.347 N 
ATOM      5  C   UNL     1       1.973   0.185  -0.363  1.00  0.00     0.135 C 
ATOM      6  C   UNL     1       0.568   0.040   0.242  1.00  0.00     0.124 C 
ATOM      7  N   UNL     1       0.193   1.239   1.064  1.00  0.00    -0.194 NA
ATOM      8  C   UNL     1       1.378   1.909   1.702  1.00  0.00     0.124 C 
ATOM      9  C   UNL     1       2.543   0.939   1.929  1.00  0.00     0.135 C 
ATOM     10  H   UNL     1       5.480  -1.327  -0.537  1.00  0.00     0.162 HD
ENDROOT
BRANCH   1  11
ATOM     11  C   UNL     1       4.834   0.250  -1.708  1.00  0.00     0.112 C 
ATOM     12  C   UNL     1       4.640  -0.403  -3.062  1.00  0.00     0.027 C 
ENDBRANCH   1  11
BRANCH   7  13
ATOM     13  S   UNL     1      -1.108   0.993   2.146  1.00  0.00     0.243 S 
ATOM     14  O   UNL     1      -1.460   2.274   2.719  1.00  0.00    -0.207 OA
ATOM     15  O   UNL     1      -0.757  -0.131   2.989  1.00  0.00    -0.207 OA
BRANCH  13  16
ATOM     16  C   UNL     1      -2.430   0.509   1.067  1.00  0.00     0.082 A 
ATOM     17  C   UNL     1      -2.986   1.460   0.213  1.00  0.00     0.022 A 
ATOM     18  C   UNL     1      -2.910  -0.802   1.089  1.00  0.00     0.025 A 
ATOM     19  C   UNL     1      -4.024   1.089  -0.640  1.00  0.00     0.005 A 
ATOM     20  C   UNL     1      -3.955  -1.184   0.232  1.00  0.00    -0.047 A 
ATOM     21  C   UNL     1      -4.515  -0.228  -0.644  1.00  0.00    -0.048 A 
ATOM     22  C   UNL     1      -4.459  -2.601   0.273  1.00  0.00     0.044 C 
ATOM     23  C   UNL     1      -5.642  -0.588  -1.575  1.00  0.00     0.044 C 
ENDBRANCH  13  16
ENDBRANCH   7  13
TORSDOF 3
