MODEL 1
REMARK VINA RESULT:    -6.833      0.000      0.000
REMARK INTER + INTRA:          -8.817
REMARK INTER:                  -8.431
REMARK INTRA:                  -0.386
REMARK UNBOUND:                -0.386
REMARK SMILES C=CCSc1nc2c(c(=O)[nH]c(=O)n2C)n1CC
REMARK SMILES IDX 5 1 6 2 7 3 8 4 9 5 10 6 11 7 12 8 13 9 14 10 15 11 16 12
REMARK SMILES IDX 4 14 3 15 2 16 1 17 17 18 18 19
REMARK H PARENT 11 13
ROOT
ATOM      1  C   UNL     1      23.696  68.348  24.289  1.00  0.00     0.171 A 
ATOM      2  N   UNL     1      23.093  67.691  23.320  1.00  0.00    -0.204 NA
ATOM      3  C   UNL     1      23.679  66.467  23.323  1.00  0.00     0.169 A 
ATOM      4  C   UNL     1      24.644  66.362  24.283  1.00  0.00     0.153 A 
ATOM      5  C   UNL     1      25.387  65.167  24.489  1.00  0.00     0.279 A 
ATOM      6  O   UNL     1      26.250  65.006  25.344  1.00  0.00    -0.267 OA
ATOM      7  N   UNL     1      25.031  64.168  23.611  1.00  0.00    -0.272 N 
ATOM      8  C   UNL     1      24.063  64.222  22.624  1.00  0.00     0.329 A 
ATOM      9  O   UNL     1      23.866  63.224  21.932  1.00  0.00    -0.248 OA
ATOM     10  N   UNL     1      23.370  65.418  22.482  1.00  0.00    -0.279 N 
ATOM     11  C   UNL     1      22.337  65.560  21.475  1.00  0.00     0.157 C 
ATOM     12  N   UNL     1      24.665  67.585  24.904  1.00  0.00    -0.313 N 
ATOM     13  H   UNL     1      25.518  63.291  23.702  1.00  0.00     0.175 HD
ENDROOT
BRANCH   1  14
ATOM     14  S   UNL     1      23.337  69.976  24.765  1.00  0.00    -0.084 SA
BRANCH  14  15
ATOM     15  C   UNL     1      21.822  70.315  23.827  1.00  0.00     0.105 C 
BRANCH  15  16
ATOM     16  C   UNL     1      22.109  71.235  22.678  1.00  0.00    -0.024 C 
ATOM     17  C   UNL     1      22.479  70.835  21.454  1.00  0.00     0.005 C 
ENDBRANCH  15  16
ENDBRANCH  14  15
ENDBRANCH   1  14
BRANCH  12  18
ATOM     18  C   UNL     1      25.548  67.969  25.991  1.00  0.00     0.122 C 
ATOM     19  C   UNL     1      24.980  67.609  27.353  1.00  0.00     0.028 C 
ENDBRANCH  12  18
TORSDOF 4
ENDMDL
MODEL 2
REMARK VINA RESULT:    -6.329      3.077      5.025
REMARK INTER + INTRA:          -8.194
REMARK INTER:                  -7.850
REMARK INTRA:                  -0.344
REMARK UNBOUND:                -0.386
REMARK SMILES C=CCSc1nc2c(c(=O)[nH]c(=O)n2C)n1CC
REMARK SMILES IDX 5 1 6 2 7 3 8 4 9 5 10 6 11 7 12 8 13 9 14 10 15 11 16 12
REMARK SMILES IDX 4 14 3 15 2 16 1 17 17 18 18 19
REMARK H PARENT 11 13
ROOT
ATOM      1  C   UNL     1      24.400  66.952  24.176  1.00  0.00     0.171 A 
ATOM      2  N   UNL     1      23.353  67.165  23.406  1.00  0.00    -0.204 NA
ATOM      3  C   UNL     1      22.905  68.393  23.774  1.00  0.00     0.169 A 
ATOM      4  C   UNL     1      23.664  68.939  24.769  1.00  0.00     0.153 A 
ATOM      5  C   UNL     1      23.399  70.228  25.309  1.00  0.00     0.279 A 
ATOM      6  O   UNL     1      24.053  70.777  26.187  1.00  0.00    -0.267 OA
ATOM      7  N   UNL     1      22.301  70.825  24.730  1.00  0.00    -0.272 N 
ATOM      8  C   UNL     1      21.502  70.317  23.722  1.00  0.00     0.329 A 
ATOM      9  O   UNL     1      20.561  70.997  23.312  1.00  0.00    -0.248 OA
ATOM     10  N   UNL     1      21.823  69.055  23.235  1.00  0.00    -0.279 N 
ATOM     11  C   UNL     1      21.039  68.449  22.177  1.00  0.00     0.157 C 
ATOM     12  N   UNL     1      24.628  68.001  25.040  1.00  0.00    -0.313 N 
ATOM     13  H   UNL     1      22.057  71.743  25.065  1.00  0.00     0.175 HD
ENDROOT
BRANCH   1  14
ATOM     14  S   UNL     1      25.398  65.534  24.133  1.00  0.00    -0.084 SA
BRANCH  14  15
ATOM     15  C   UNL     1      24.191  64.238  23.740  1.00  0.00     0.105 C 
BRANCH  15  16
ATOM     16  C   UNL     1      24.290  63.847  22.296  1.00  0.00    -0.024 C 
ATOM     17  C   UNL     1      23.374  64.138  21.362  1.00  0.00     0.005 C 
ENDBRANCH  15  16
ENDBRANCH  14  15
ENDBRANCH   1  14
BRANCH  12  18
ATOM     18  C   UNL     1      25.668  68.121  26.045  1.00  0.00     0.122 C 
ATOM     19  C   UNL     1      25.288  67.449  27.354  1.00  0.00     0.028 C 
ENDBRANCH  12  18
TORSDOF 4
ENDMDL
MODEL 3
REMARK VINA RESULT:    -6.240      3.123      5.156
REMARK INTER + INTRA:          -8.085
REMARK INTER:                  -7.687
REMARK INTRA:                  -0.398
REMARK UNBOUND:                -0.386
REMARK SMILES C=CCSc1nc2c(c(=O)[nH]c(=O)n2C)n1CC
REMARK SMILES IDX 5 1 6 2 7 3 8 4 9 5 10 6 11 7 12 8 13 9 14 10 15 11 16 12
REMARK SMILES IDX 4 14 3 15 2 16 1 17 17 18 18 19
REMARK H PARENT 11 13
ROOT
ATOM      1  C   UNL     1      22.367  70.464  23.013  1.00  0.00     0.171 A 
ATOM      2  N   UNL     1      23.064  69.373  23.253  1.00  0.00    -0.204 NA
ATOM      3  C   UNL     1      23.292  69.402  24.592  1.00  0.00     0.169 A 
ATOM      4  C   UNL     1      22.746  70.507  25.181  1.00  0.00     0.153 A 
ATOM      5  C   UNL     1      22.840  70.750  26.578  1.00  0.00     0.279 A 
ATOM      6  O   UNL     1      22.357  71.710  27.166  1.00  0.00    -0.267 OA
ATOM      7  N   UNL     1      23.546  69.768  27.237  1.00  0.00    -0.272 N 
ATOM      8  C   UNL     1      24.117  68.633  26.690  1.00  0.00     0.329 A 
ATOM      9  O   UNL     1      24.706  67.849  27.433  1.00  0.00    -0.248 OA
ATOM     10  N   UNL     1      23.980  68.454  25.318  1.00  0.00    -0.279 N 
ATOM     11  C   UNL     1      24.545  67.291  24.664  1.00  0.00     0.157 C 
ATOM     12  N   UNL     1      22.155  71.204  24.156  1.00  0.00    -0.313 N 
ATOM     13  H   UNL     1      23.650  69.877  28.233  1.00  0.00     0.175 HD
ENDROOT
BRANCH   1  14
ATOM     14  S   UNL     1      21.770  70.943  21.458  1.00  0.00    -0.084 SA
BRANCH  14  15
ATOM     15  C   UNL     1      20.307  69.886  21.276  1.00  0.00     0.105 C 
BRANCH  15  16
ATOM     16  C   UNL     1      20.678  68.579  20.640  1.00  0.00    -0.024 C 
ATOM     17  C   UNL     1      21.690  68.410  19.779  1.00  0.00     0.005 C 
ENDBRANCH  15  16
ENDBRANCH  14  15
ENDBRANCH   1  14
BRANCH  12  18
ATOM     18  C   UNL     1      21.455  72.468  24.285  1.00  0.00     0.122 C 
ATOM     19  C   UNL     1      22.379  73.662  24.118  1.00  0.00     0.028 C 
ENDBRANCH  12  18
TORSDOF 4
ENDMDL
MODEL 4
REMARK VINA RESULT:    -6.166      3.086      5.427
REMARK INTER + INTRA:          -7.994
REMARK INTER:                  -7.633
REMARK INTRA:                  -0.361
REMARK UNBOUND:                -0.386
REMARK SMILES C=CCSc1nc2c(c(=O)[nH]c(=O)n2C)n1CC
REMARK SMILES IDX 5 1 6 2 7 3 8 4 9 5 10 6 11 7 12 8 13 9 14 10 15 11 16 12
REMARK SMILES IDX 4 14 3 15 2 16 1 17 17 18 18 19
REMARK H PARENT 11 13
ROOT
ATOM      1  C   UNL     1      22.972  68.884  23.430  1.00  0.00     0.171 A 
ATOM      2  N   UNL     1      22.515  70.051  23.836  1.00  0.00    -0.204 NA
ATOM      3  C   UNL     1      22.814  70.092  25.159  1.00  0.00     0.169 A 
ATOM      4  C   UNL     1      23.449  68.957  25.578  1.00  0.00     0.153 A 
ATOM      5  C   UNL     1      23.877  68.775  26.921  1.00  0.00     0.279 A 
ATOM      6  O   UNL     1      24.465  67.790  27.351  1.00  0.00    -0.267 OA
ATOM      7  N   UNL     1      23.561  69.848  27.725  1.00  0.00    -0.272 N 
ATOM      8  C   UNL     1      22.923  71.018  27.352  1.00  0.00     0.329 A 
ATOM      9  O   UNL     1      22.730  71.885  28.204  1.00  0.00    -0.248 OA
ATOM     10  N   UNL     1      22.539  71.133  26.021  1.00  0.00    -0.279 N 
ATOM     11  C   UNL     1      21.866  72.326  25.546  1.00  0.00     0.157 C 
ATOM     12  N   UNL     1      23.542  68.167  24.460  1.00  0.00    -0.313 N 
ATOM     13  H   UNL     1      23.837  69.786  28.691  1.00  0.00     0.175 HD
ENDROOT
BRANCH   1  14
ATOM     14  S   UNL     1      22.886  68.291  21.803  1.00  0.00    -0.084 SA
BRANCH  14  15
ATOM     15  C   UNL     1      21.571  67.048  21.926  1.00  0.00     0.105 C 
BRANCH  15  16
ATOM     16  C   UNL     1      21.979  65.781  21.235  1.00  0.00    -0.024 C 
ATOM     17  C   UNL     1      22.616  64.761  21.826  1.00  0.00     0.005 C 
ENDBRANCH  15  16
ENDBRANCH  14  15
ENDBRANCH   1  14
BRANCH  12  18
ATOM     18  C   UNL     1      24.129  66.841  24.406  1.00  0.00     0.122 C 
ATOM     19  C   UNL     1      25.625  66.881  24.146  1.00  0.00     0.028 C 
ENDBRANCH  12  18
TORSDOF 4
ENDMDL
MODEL 5
REMARK VINA RESULT:    -6.117      3.452      5.657
REMARK INTER + INTRA:          -7.934
REMARK INTER:                  -7.571
REMARK INTRA:                  -0.362
REMARK UNBOUND:                -0.386
REMARK SMILES C=CCSc1nc2c(c(=O)[nH]c(=O)n2C)n1CC
REMARK SMILES IDX 5 1 6 2 7 3 8 4 9 5 10 6 11 7 12 8 13 9 14 10 15 11 16 12
REMARK SMILES IDX 4 14 3 15 2 16 1 17 17 18 18 19
REMARK H PARENT 11 13
ROOT
ATOM      1  C   UNL     1      21.753  72.244  24.169  1.00  0.00     0.171 A 
ATOM      2  N   UNL     1      22.036  72.147  25.451  1.00  0.00    -0.204 NA
ATOM      3  C   UNL     1      22.602  70.920  25.583  1.00  0.00     0.169 A 
ATOM      4  C   UNL     1      22.668  70.255  24.391  1.00  0.00     0.153 A 
ATOM      5  C   UNL     1      23.235  68.956  24.275  1.00  0.00     0.279 A 
ATOM      6  O   UNL     1      23.339  68.318  23.234  1.00  0.00    -0.267 OA
ATOM      7  N   UNL     1      23.678  68.465  25.482  1.00  0.00    -0.272 N 
ATOM      8  C   UNL     1      23.637  69.095  26.713  1.00  0.00     0.329 A 
ATOM      9  O   UNL     1      24.092  68.510  27.695  1.00  0.00    -0.248 OA
ATOM     10  N   UNL     1      23.075  70.366  26.754  1.00  0.00    -0.279 N 
ATOM     11  C   UNL     1      22.993  71.099  28.002  1.00  0.00     0.157 C 
ATOM     12  N   UNL     1      22.107  71.107  23.474  1.00  0.00    -0.313 N 
ATOM     13  H   UNL     1      24.095  67.548  25.472  1.00  0.00     0.175 HD
ENDROOT
BRANCH   1  14
ATOM     14  S   UNL     1      21.027  73.624  23.410  1.00  0.00    -0.084 SA
BRANCH  14  15
ATOM     15  C   UNL     1      22.196  74.944  23.835  1.00  0.00     0.105 C 
BRANCH  15  16
ATOM     16  C   UNL     1      23.435  74.841  22.995  1.00  0.00    -0.024 C 
ATOM     17  C   UNL     1      24.467  75.693  23.049  1.00  0.00     0.005 C 
ENDBRANCH  15  16
ENDBRANCH  14  15
ENDBRANCH   1  14
BRANCH  12  18
ATOM     18  C   UNL     1      21.934  70.835  22.060  1.00  0.00     0.122 C 
ATOM     19  C   UNL     1      20.623  70.128  21.762  1.00  0.00     0.028 C 
ENDBRANCH  12  18
TORSDOF 4
ENDMDL
MODEL 6
REMARK VINA RESULT:    -6.062      3.617      5.540
REMARK INTER + INTRA:          -7.866
REMARK INTER:                  -7.534
REMARK INTRA:                  -0.331
REMARK UNBOUND:                -0.386
REMARK SMILES C=CCSc1nc2c(c(=O)[nH]c(=O)n2C)n1CC
REMARK SMILES IDX 5 1 6 2 7 3 8 4 9 5 10 6 11 7 12 8 13 9 14 10 15 11 16 12
REMARK SMILES IDX 4 14 3 15 2 16 1 17 17 18 18 19
REMARK H PARENT 11 13
ROOT
ATOM      1  C   UNL     1      23.655  68.796  24.946  1.00  0.00     0.171 A 
ATOM      2  N   UNL     1      22.939  68.242  23.989  1.00  0.00    -0.204 NA
ATOM      3  C   UNL     1      22.017  69.183  23.665  1.00  0.00     0.169 A 
ATOM      4  C   UNL     1      22.153  70.316  24.417  1.00  0.00     0.153 A 
ATOM      5  C   UNL     1      21.310  71.448  24.247  1.00  0.00     0.279 A 
ATOM      6  O   UNL     1      21.394  72.496  24.877  1.00  0.00    -0.267 OA
ATOM      7  N   UNL     1      20.357  71.254  23.272  1.00  0.00    -0.272 N 
ATOM      8  C   UNL     1      20.178  70.132  22.483  1.00  0.00     0.329 A 
ATOM      9  O   UNL     1      19.277  70.134  21.645  1.00  0.00    -0.248 OA
ATOM     10  N   UNL     1      21.042  69.064  22.696  1.00  0.00    -0.279 N 
ATOM     11  C   UNL     1      20.926  67.850  21.913  1.00  0.00     0.157 C 
ATOM     12  N   UNL     1      23.207  70.062  25.257  1.00  0.00    -0.313 N 
ATOM     13  H   UNL     1      19.726  72.020  23.098  1.00  0.00     0.175 HD
ENDROOT
BRANCH   1  14
ATOM     14  S   UNL     1      25.006  68.054  25.738  1.00  0.00    -0.084 SA
BRANCH  14  15
ATOM     15  C   UNL     1      25.692  67.016  24.417  1.00  0.00     0.105 C 
BRANCH  15  16
ATOM     16  C   UNL     1      25.403  65.569  24.682  1.00  0.00    -0.024 C 
ATOM     17  C   UNL     1      24.996  64.689  23.757  1.00  0.00     0.005 C 
ENDBRANCH  15  16
ENDBRANCH  14  15
ENDBRANCH   1  14
BRANCH  12  18
ATOM     18  C   UNL     1      23.725  70.970  26.264  1.00  0.00     0.122 C 
ATOM     19  C   UNL     1      22.968  70.869  27.578  1.00  0.00     0.028 C 
ENDBRANCH  12  18
TORSDOF 4
ENDMDL
MODEL 7
REMARK VINA RESULT:    -5.902      1.921      4.217
REMARK INTER + INTRA:          -7.668
REMARK INTER:                  -7.335
REMARK INTRA:                  -0.333
REMARK UNBOUND:                -0.386
REMARK SMILES C=CCSc1nc2c(c(=O)[nH]c(=O)n2C)n1CC
REMARK SMILES IDX 5 1 6 2 7 3 8 4 9 5 10 6 11 7 12 8 13 9 14 10 15 11 16 12
REMARK SMILES IDX 4 14 3 15 2 16 1 17 17 18 18 19
REMARK H PARENT 11 13
ROOT
ATOM      1  C   UNL     1      23.712  68.631  24.363  1.00  0.00     0.171 A 
ATOM      2  N   UNL     1      24.178  67.422  24.127  1.00  0.00    -0.204 NA
ATOM      3  C   UNL     1      23.342  66.914  23.184  1.00  0.00     0.169 A 
ATOM      4  C   UNL     1      22.360  67.798  22.839  1.00  0.00     0.153 A 
ATOM      5  C   UNL     1      21.375  67.497  21.859  1.00  0.00     0.279 A 
ATOM      6  O   UNL     1      20.482  68.253  21.495  1.00  0.00    -0.267 OA
ATOM      7  N   UNL     1      21.523  66.232  21.334  1.00  0.00    -0.272 N 
ATOM      8  C   UNL     1      22.497  65.302  21.647  1.00  0.00     0.329 A 
ATOM      9  O   UNL     1      22.488  64.216  21.068  1.00  0.00    -0.248 OA
ATOM     10  N   UNL     1      23.434  65.665  22.608  1.00  0.00    -0.279 N 
ATOM     11  C   UNL     1      24.491  64.750  22.994  1.00  0.00     0.157 C 
ATOM     12  N   UNL     1      22.591  68.908  23.611  1.00  0.00    -0.313 N 
ATOM     13  H   UNL     1      20.858  65.954  20.631  1.00  0.00     0.175 HD
ENDROOT
BRANCH   1  14
ATOM     14  S   UNL     1      24.404  69.765  25.477  1.00  0.00    -0.084 SA
BRANCH  14  15
ATOM     15  C   UNL     1      23.573  69.322  27.028  1.00  0.00     0.105 C 
BRANCH  15  16
ATOM     16  C   UNL     1      24.151  68.058  27.591  1.00  0.00    -0.024 C 
ATOM     17  C   UNL     1      25.417  67.655  27.420  1.00  0.00     0.005 C 
ENDBRANCH  15  16
ENDBRANCH  14  15
ENDBRANCH   1  14
BRANCH  12  18
ATOM     18  C   UNL     1      21.792  70.120  23.613  1.00  0.00     0.122 C 
ATOM     19  C   UNL     1      22.229  71.103  22.541  1.00  0.00     0.028 C 
ENDBRANCH  12  18
TORSDOF 4
ENDMDL
MODEL 8
REMARK VINA RESULT:    -5.800     10.525     12.656
REMARK INTER + INTRA:          -7.542
REMARK INTER:                  -7.108
REMARK INTRA:                  -0.434
REMARK UNBOUND:                -0.386
REMARK SMILES C=CCSc1nc2c(c(=O)[nH]c(=O)n2C)n1CC
REMARK SMILES IDX 5 1 6 2 7 3 8 4 9 5 10 6 11 7 12 8 13 9 14 10 15 11 16 12
REMARK SMILES IDX 4 14 3 15 2 16 1 17 17 18 18 19
REMARK H PARENT 11 13
ROOT
ATOM      1  C   UNL     1      18.067  77.556  22.584  1.00  0.00     0.171 A 
ATOM      2  N   UNL     1      19.215  76.995  22.903  1.00  0.00    -0.204 NA
ATOM      3  C   UNL     1      19.482  77.453  24.153  1.00  0.00     0.169 A 
ATOM      4  C   UNL     1      18.509  78.298  24.609  1.00  0.00     0.153 A 
ATOM      5  C   UNL     1      18.560  78.892  25.899  1.00  0.00     0.279 A 
ATOM      6  O   UNL     1      17.713  79.641  26.370  1.00  0.00    -0.267 OA
ATOM      7  N   UNL     1      19.690  78.533  26.600  1.00  0.00    -0.272 N 
ATOM      8  C   UNL     1      20.701  77.683  26.187  1.00  0.00     0.329 A 
ATOM      9  O   UNL     1      21.639  77.461  26.952  1.00  0.00    -0.248 OA
ATOM     10  N   UNL     1      20.583  77.131  24.917  1.00  0.00    -0.279 N 
ATOM     11  C   UNL     1      21.597  76.229  24.406  1.00  0.00     0.157 C 
ATOM     12  N   UNL     1      17.596  78.375  23.588  1.00  0.00    -0.313 N 
ATOM     13  H   UNL     1      19.789  78.917  27.526  1.00  0.00     0.175 HD
ENDROOT
BRANCH   1  14
ATOM     14  S   UNL     1      17.219  77.313  21.091  1.00  0.00    -0.084 SA
BRANCH  14  15
ATOM     15  C   UNL     1      16.103  75.946  21.512  1.00  0.00     0.105 C 
BRANCH  15  16
ATOM     16  C   UNL     1      16.822  74.633  21.418  1.00  0.00    -0.024 C 
ATOM     17  C   UNL     1      16.906  73.736  22.410  1.00  0.00     0.005 C 
ENDBRANCH  15  16
ENDBRANCH  14  15
ENDBRANCH   1  14
BRANCH  12  18
ATOM     18  C   UNL     1      16.384  79.173  23.594  1.00  0.00     0.122 C 
ATOM     19  C   UNL     1      15.222  78.456  24.259  1.00  0.00     0.028 C 
ENDBRANCH  12  18
TORSDOF 4
ENDMDL
MODEL 9
REMARK VINA RESULT:    -5.737     20.711     23.235
REMARK INTER + INTRA:          -7.465
REMARK INTER:                  -7.018
REMARK INTRA:                  -0.446
REMARK UNBOUND:                -0.386
REMARK SMILES C=CCSc1nc2c(c(=O)[nH]c(=O)n2C)n1CC
REMARK SMILES IDX 5 1 6 2 7 3 8 4 9 5 10 6 11 7 12 8 13 9 14 10 15 11 16 12
REMARK SMILES IDX 4 14 3 15 2 16 1 17 17 18 18 19
REMARK H PARENT 11 13
ROOT
ATOM      1  C   UNL     1      10.686  84.370  29.280  1.00  0.00     0.171 A 
ATOM      2  N   UNL     1      11.626  83.646  29.851  1.00  0.00    -0.204 NA
ATOM      3  C   UNL     1      12.684  84.490  29.965  1.00  0.00     0.169 A 
ATOM      4  C   UNL     1      12.407  85.730  29.464  1.00  0.00     0.153 A 
ATOM      5  C   UNL     1      13.355  86.789  29.486  1.00  0.00     0.279 A 
ATOM      6  O   UNL     1      13.160  87.925  29.071  1.00  0.00    -0.267 OA
ATOM      7  N   UNL     1      14.556  86.410  30.043  1.00  0.00    -0.272 N 
ATOM      8  C   UNL     1      14.887  85.171  30.564  1.00  0.00     0.329 A 
ATOM      9  O   UNL     1      16.011  85.008  31.037  1.00  0.00    -0.248 OA
ATOM     10  N   UNL     1      13.910  84.184  30.517  1.00  0.00    -0.279 N 
ATOM     11  C   UNL     1      14.171  82.858  31.043  1.00  0.00     0.157 C 
ATOM     12  N   UNL     1      11.115  85.652  29.008  1.00  0.00    -0.313 N 
ATOM     13  H   UNL     1      15.274  87.114  30.092  1.00  0.00     0.175 HD
ENDROOT
BRANCH   1  14
ATOM     14  S   UNL     1       9.088  83.813  28.904  1.00  0.00    -0.084 SA
BRANCH  14  15
ATOM     15  C   UNL     1       8.144  84.379  30.345  1.00  0.00     0.105 C 
BRANCH  15  16
ATOM     16  C   UNL     1       6.739  84.727  29.950  1.00  0.00    -0.024 C 
ATOM     17  C   UNL     1       6.141  85.897  30.208  1.00  0.00     0.005 C 
ENDBRANCH  15  16
ENDBRANCH  14  15
ENDBRANCH   1  14
BRANCH  12  18
ATOM     18  C   UNL     1      10.375  86.724  28.370  1.00  0.00     0.122 C 
ATOM     19  C   UNL     1       9.649  87.604  29.373  1.00  0.00     0.028 C 
ENDBRANCH  12  18
TORSDOF 4
ENDMDL
MODEL 10
REMARK VINA RESULT:    -5.721     21.870     24.376
REMARK INTER + INTRA:          -7.444
REMARK INTER:                  -7.129
REMARK INTRA:                  -0.315
REMARK UNBOUND:                -0.386
REMARK SMILES C=CCSc1nc2c(c(=O)[nH]c(=O)n2C)n1CC
REMARK SMILES IDX 5 1 6 2 7 3 8 4 9 5 10 6 11 7 12 8 13 9 14 10 15 11 16 12
REMARK SMILES IDX 4 14 3 15 2 16 1 17 17 18 18 19
REMARK H PARENT 11 13
ROOT
ATOM      1  C   UNL     1      10.393  85.744  29.844  1.00  0.00     0.171 A 
ATOM      2  N   UNL     1      10.439  87.021  30.163  1.00  0.00    -0.204 NA
ATOM      3  C   UNL     1      11.600  87.158  30.854  1.00  0.00     0.169 A 
ATOM      4  C   UNL     1      12.271  85.974  30.969  1.00  0.00     0.153 A 
ATOM      5  C   UNL     1      13.521  85.869  31.638  1.00  0.00     0.279 A 
ATOM      6  O   UNL     1      14.178  84.842  31.759  1.00  0.00    -0.267 OA
ATOM      7  N   UNL     1      13.944  87.074  32.154  1.00  0.00    -0.272 N 
ATOM      8  C   UNL     1      13.306  88.298  32.064  1.00  0.00     0.329 A 
ATOM      9  O   UNL     1      13.836  89.283  32.576  1.00  0.00    -0.248 OA
ATOM     10  N   UNL     1      12.091  88.330  31.389  1.00  0.00    -0.279 N 
ATOM     11  C   UNL     1      11.356  89.571  31.247  1.00  0.00     0.157 C 
ATOM     12  N   UNL     1      11.484  85.053  30.325  1.00  0.00    -0.313 N 
ATOM     13  H   UNL     1      14.827  87.073  32.640  1.00  0.00     0.175 HD
ENDROOT
BRANCH   1  14
ATOM     14  S   UNL     1       9.129  84.990  28.928  1.00  0.00    -0.084 SA
BRANCH  14  15
ATOM     15  C   UNL     1       8.118  84.236  30.232  1.00  0.00     0.105 C 
BRANCH  15  16
ATOM     16  C   UNL     1       6.944  85.110  30.558  1.00  0.00    -0.024 C 
ATOM     17  C   UNL     1       5.795  85.132  29.870  1.00  0.00     0.005 C 
ENDBRANCH  15  16
ENDBRANCH  14  15
ENDBRANCH   1  14
BRANCH  12  18
ATOM     18  C   UNL     1      11.772  83.636  30.195  1.00  0.00     0.122 C 
ATOM     19  C   UNL     1      12.661  83.333  29.001  1.00  0.00     0.028 C 
ENDBRANCH  12  18
TORSDOF 4
ENDMDL
