MODEL 1
REMARK VINA RESULT:    -9.073      0.000      0.000
REMARK INTER + INTRA:         -11.756
REMARK INTER:                 -11.194
REMARK INTRA:                  -0.561
REMARK UNBOUND:                -0.561
REMARK SMILES O=C(Nc1ccc(F)c(F)c1)c1ccc(F)c(S(=O)(=O)N2CCOCC2)c1
REMARK SMILES IDX 12 1 13 2 14 3 15 4 16 5 17 6 27 7 2 8 1 9 3 10 4 12 5 13
REMARK SMILES IDX 11 14 6 15 9 16 7 17 10 18 8 19 18 20 19 21 20 22 21 23
REMARK SMILES IDX 22 24 26 25 23 26 25 27 24 28
REMARK H PARENT 3 11
ROOT
ATOM      1  C   UNL     1      22.218  74.365  23.785  1.00  0.00     0.041 A 
ATOM      2  C   UNL     1      23.483  74.746  23.314  1.00  0.00     0.017 A 
ATOM      3  C   UNL     1      23.823  76.100  23.256  1.00  0.00     0.041 A 
ATOM      4  C   UNL     1      22.905  77.068  23.660  1.00  0.00     0.143 A 
ATOM      5  F   UNL     1      23.261  78.355  23.576  1.00  0.00    -0.206 F 
ATOM      6  C   UNL     1      21.646  76.691  24.112  1.00  0.00     0.119 A 
ATOM      7  C   UNL     1      21.291  75.340  24.178  1.00  0.00     0.038 A 
ENDROOT
BRANCH   1   8
ATOM      8  C   UNL     1      21.807  72.934  23.836  1.00  0.00     0.255 C 
ATOM      9  O   UNL     1      21.218  72.546  24.836  1.00  0.00    -0.269 OA
ATOM     10  N   UNL     1      22.173  72.184  22.735  1.00  0.00    -0.322 N 
ATOM     11  H   UNL     1      22.766  72.632  22.047  1.00  0.00     0.170 HD
BRANCH  10  12
ATOM     12  C   UNL     1      21.886  70.822  22.500  1.00  0.00     0.044 A 
ATOM     13  C   UNL     1      20.848  70.373  21.674  1.00  0.00     0.029 A 
ATOM     14  C   UNL     1      22.706  69.877  23.131  1.00  0.00     0.068 A 
ATOM     15  C   UNL     1      20.629  69.003  21.484  1.00  0.00     0.044 A 
ATOM     16  C   UNL     1      22.482  68.516  22.937  1.00  0.00     0.160 A 
ATOM     17  C   UNL     1      21.449  68.081  22.120  1.00  0.00     0.158 A 
ATOM     18  F   UNL     1      23.278  67.629  23.551  1.00  0.00    -0.204 F 
ATOM     19  F   UNL     1      21.238  66.771  21.936  1.00  0.00    -0.204 F 
ENDBRANCH  10  12
ENDBRANCH   1   8
BRANCH   6  20
ATOM     20  S   UNL     1      20.515  77.939  24.625  1.00  0.00     0.246 S 
ATOM     21  O   UNL     1      20.549  78.993  23.636  1.00  0.00    -0.207 OA
ATOM     22  O   UNL     1      20.767  78.228  26.023  1.00  0.00    -0.207 OA
BRANCH  20  23
ATOM     23  N   UNL     1      19.008  77.154  24.550  1.00  0.00    -0.193 NA
ATOM     24  C   UNL     1      17.981  77.595  25.550  1.00  0.00     0.131 C 
ATOM     25  C   UNL     1      18.451  77.083  23.160  1.00  0.00     0.131 C 
ATOM     26  C   UNL     1      16.889  78.436  24.884  1.00  0.00     0.177 C 
ATOM     27  C   UNL     1      16.961  76.730  23.201  1.00  0.00     0.177 C 
ATOM     28  O   UNL     1      16.166  77.715  23.877  1.00  0.00    -0.379 OA
ENDBRANCH  20  23
ENDBRANCH   6  20
TORSDOF 4
ENDMDL
MODEL 2
REMARK VINA RESULT:    -8.685      3.686      8.166
REMARK INTER + INTRA:         -11.277
REMARK INTER:                 -10.574
REMARK INTRA:                  -0.702
REMARK UNBOUND:                -0.561
REMARK SMILES O=C(Nc1ccc(F)c(F)c1)c1ccc(F)c(S(=O)(=O)N2CCOCC2)c1
REMARK SMILES IDX 12 1 13 2 14 3 15 4 16 5 17 6 27 7 2 8 1 9 3 10 4 12 5 13
REMARK SMILES IDX 11 14 6 15 9 16 7 17 10 18 8 19 18 20 19 21 20 22 21 23
REMARK SMILES IDX 22 24 26 25 23 26 25 27 24 28
REMARK H PARENT 3 11
ROOT
ATOM      1  C   UNL     1      22.602  71.027  24.141  1.00  0.00     0.041 A 
ATOM      2  C   UNL     1      23.254  70.093  24.960  1.00  0.00     0.017 A 
ATOM      3  C   UNL     1      23.295  68.748  24.585  1.00  0.00     0.041 A 
ATOM      4  C   UNL     1      22.684  68.335  23.402  1.00  0.00     0.143 A 
ATOM      5  F   UNL     1      22.731  67.037  23.082  1.00  0.00    -0.206 F 
ATOM      6  C   UNL     1      22.025  69.257  22.598  1.00  0.00     0.119 A 
ATOM      7  C   UNL     1      21.977  70.607  22.959  1.00  0.00     0.038 A 
ENDROOT
BRANCH   1   8
ATOM      8  C   UNL     1      22.512  72.464  24.520  1.00  0.00     0.255 C 
ATOM      9  O   UNL     1      22.205  72.731  25.674  1.00  0.00    -0.269 OA
ATOM     10  N   UNL     1      22.764  73.353  23.493  1.00  0.00    -0.322 N 
ATOM     11  H   UNL     1      22.884  72.965  22.564  1.00  0.00     0.170 HD
BRANCH  10  12
ATOM     12  C   UNL     1      22.784  74.762  23.572  1.00  0.00     0.044 A 
ATOM     13  C   UNL     1      23.885  75.550  23.213  1.00  0.00     0.029 A 
ATOM     14  C   UNL     1      21.622  75.394  24.032  1.00  0.00     0.068 A 
ATOM     15  C   UNL     1      23.829  76.945  23.314  1.00  0.00     0.044 A 
ATOM     16  C   UNL     1      21.573  76.782  24.130  1.00  0.00     0.160 A 
ATOM     17  C   UNL     1      22.669  77.554  23.774  1.00  0.00     0.158 A 
ATOM     18  F   UNL     1      20.450  77.367  24.573  1.00  0.00    -0.204 F 
ATOM     19  F   UNL     1      22.617  78.889  23.869  1.00  0.00    -0.204 F 
ENDBRANCH  10  12
ENDBRANCH   1   8
BRANCH   6  20
ATOM     20  S   UNL     1      21.274  68.704  21.105  1.00  0.00     0.246 S 
ATOM     21  O   UNL     1      20.318  67.675  21.451  1.00  0.00    -0.207 OA
ATOM     22  O   UNL     1      22.324  68.443  20.141  1.00  0.00    -0.207 OA
BRANCH  20  23
ATOM     23  N   UNL     1      20.436  70.078  20.556  1.00  0.00    -0.193 NA
ATOM     24  C   UNL     1      20.757  70.539  19.166  1.00  0.00     0.131 C 
ATOM     25  C   UNL     1      18.958  70.003  20.800  1.00  0.00     0.131 C 
ATOM     26  C   UNL     1      19.616  70.211  18.199  1.00  0.00     0.177 C 
ATOM     27  C   UNL     1      18.225  71.054  19.962  1.00  0.00     0.177 C 
ATOM     28  O   UNL     1      18.385  70.860  18.549  1.00  0.00    -0.379 OA
ENDBRANCH  20  23
ENDBRANCH   6  20
TORSDOF 4
ENDMDL
MODEL 3
REMARK VINA RESULT:    -8.681      2.274      3.153
REMARK INTER + INTRA:         -11.272
REMARK INTER:                 -11.216
REMARK INTRA:                  -0.056
REMARK UNBOUND:                -0.561
REMARK SMILES O=C(Nc1ccc(F)c(F)c1)c1ccc(F)c(S(=O)(=O)N2CCOCC2)c1
REMARK SMILES IDX 12 1 13 2 14 3 15 4 16 5 17 6 27 7 2 8 1 9 3 10 4 12 5 13
REMARK SMILES IDX 11 14 6 15 9 16 7 17 10 18 8 19 18 20 19 21 20 22 21 23
REMARK SMILES IDX 22 24 26 25 23 26 25 27 24 28
REMARK H PARENT 3 11
ROOT
ATOM      1  C   UNL     1      21.484  72.887  24.312  1.00  0.00     0.041 A 
ATOM      2  C   UNL     1      20.608  72.552  23.268  1.00  0.00     0.017 A 
ATOM      3  C   UNL     1      19.869  73.553  22.633  1.00  0.00     0.041 A 
ATOM      4  C   UNL     1      19.997  74.879  23.041  1.00  0.00     0.143 A 
ATOM      5  F   UNL     1      19.261  75.809  22.420  1.00  0.00    -0.206 F 
ATOM      6  C   UNL     1      20.852  75.209  24.085  1.00  0.00     0.119 A 
ATOM      7  C   UNL     1      21.601  74.219  24.729  1.00  0.00     0.038 A 
ENDROOT
BRANCH   1   8
ATOM      8  C   UNL     1      22.268  71.846  25.031  1.00  0.00     0.255 C 
ATOM      9  O   UNL     1      22.505  72.029  26.218  1.00  0.00    -0.269 OA
ATOM     10  N   UNL     1      22.675  70.780  24.251  1.00  0.00    -0.322 N 
ATOM     11  H   UNL     1      22.499  70.843  23.255  1.00  0.00     0.170 HD
BRANCH  10  12
ATOM     12  C   UNL     1      23.395  69.642  24.673  1.00  0.00     0.044 A 
ATOM     13  C   UNL     1      24.148  69.586  25.852  1.00  0.00     0.029 A 
ATOM     14  C   UNL     1      23.334  68.506  23.854  1.00  0.00     0.068 A 
ATOM     15  C   UNL     1      24.833  68.417  26.208  1.00  0.00     0.044 A 
ATOM     16  C   UNL     1      24.017  67.348  24.215  1.00  0.00     0.160 A 
ATOM     17  C   UNL     1      24.763  67.302  25.384  1.00  0.00     0.158 A 
ATOM     18  F   UNL     1      23.946  66.272  23.417  1.00  0.00    -0.204 F 
ATOM     19  F   UNL     1      25.418  66.185  25.727  1.00  0.00    -0.204 F 
ENDBRANCH  10  12
ENDBRANCH   1   8
BRANCH   6  20
ATOM     20  S   UNL     1      20.999  76.896  24.567  1.00  0.00     0.246 S 
ATOM     21  O   UNL     1      21.627  77.609  23.478  1.00  0.00    -0.207 OA
ATOM     22  O   UNL     1      21.563  76.937  25.901  1.00  0.00    -0.207 OA
BRANCH  20  23
ATOM     23  N   UNL     1      19.381  77.405  24.704  1.00  0.00    -0.193 NA
ATOM     24  C   UNL     1      18.880  77.651  26.095  1.00  0.00     0.131 C 
ATOM     25  C   UNL     1      19.037  78.527  23.771  1.00  0.00     0.131 C 
ATOM     26  C   UNL     1      18.734  79.150  26.371  1.00  0.00     0.177 C 
ATOM     27  C   UNL     1      17.724  79.190  24.196  1.00  0.00     0.177 C 
ATOM     28  O   UNL     1      17.791  79.789  25.499  1.00  0.00    -0.379 OA
ENDBRANCH  20  23
ENDBRANCH   6  20
TORSDOF 4
ENDMDL
MODEL 4
REMARK VINA RESULT:    -8.202      2.831      3.834
REMARK INTER + INTRA:         -10.682
REMARK INTER:                 -10.044
REMARK INTRA:                  -0.638
REMARK UNBOUND:                -0.561
REMARK SMILES O=C(Nc1ccc(F)c(F)c1)c1ccc(F)c(S(=O)(=O)N2CCOCC2)c1
REMARK SMILES IDX 12 1 13 2 14 3 15 4 16 5 17 6 27 7 2 8 1 9 3 10 4 12 5 13
REMARK SMILES IDX 11 14 6 15 9 16 7 17 10 18 8 19 18 20 19 21 20 22 21 23
REMARK SMILES IDX 22 24 26 25 23 26 25 27 24 28
REMARK H PARENT 3 11
ROOT
ATOM      1  C   UNL     1      19.878  73.440  22.719  1.00  0.00     0.041 A 
ATOM      2  C   UNL     1      18.786  72.623  22.391  1.00  0.00     0.017 A 
ATOM      3  C   UNL     1      17.558  73.204  22.062  1.00  0.00     0.041 A 
ATOM      4  C   UNL     1      17.420  74.591  22.065  1.00  0.00     0.143 A 
ATOM      5  F   UNL     1      16.225  75.111  21.759  1.00  0.00    -0.206 F 
ATOM      6  C   UNL     1      18.497  75.399  22.405  1.00  0.00     0.119 A 
ATOM      7  C   UNL     1      19.733  74.833  22.736  1.00  0.00     0.038 A 
ENDROOT
BRANCH   1   8
ATOM      8  C   UNL     1      21.194  72.859  23.102  1.00  0.00     0.255 C 
ATOM      9  O   UNL     1      22.204  73.433  22.717  1.00  0.00    -0.269 OA
ATOM     10  N   UNL     1      21.123  71.694  23.842  1.00  0.00    -0.322 N 
ATOM     11  H   UNL     1      20.206  71.285  23.972  1.00  0.00     0.170 HD
BRANCH  10  12
ATOM     12  C   UNL     1      22.203  70.953  24.369  1.00  0.00     0.044 A 
ATOM     13  C   UNL     1      22.927  71.326  25.507  1.00  0.00     0.029 A 
ATOM     14  C   UNL     1      22.551  69.770  23.703  1.00  0.00     0.068 A 
ATOM     15  C   UNL     1      23.984  70.534  25.973  1.00  0.00     0.044 A 
ATOM     16  C   UNL     1      23.604  68.988  24.172  1.00  0.00     0.160 A 
ATOM     17  C   UNL     1      24.317  69.367  25.300  1.00  0.00     0.158 A 
ATOM     18  F   UNL     1      23.921  67.860  23.520  1.00  0.00    -0.204 F 
ATOM     19  F   UNL     1      25.328  68.611  25.748  1.00  0.00    -0.204 F 
ENDBRANCH  10  12
ENDBRANCH   1   8
BRANCH   6  20
ATOM     20  S   UNL     1      18.290  77.148  22.388  1.00  0.00     0.246 S 
ATOM     21  O   UNL     1      17.935  77.533  21.041  1.00  0.00    -0.207 OA
ATOM     22  O   UNL     1      19.434  77.744  23.050  1.00  0.00    -0.207 OA
BRANCH  20  23
ATOM     23  N   UNL     1      16.951  77.393  23.408  1.00  0.00    -0.193 NA
ATOM     24  C   UNL     1      17.242  77.468  24.877  1.00  0.00     0.131 C 
ATOM     25  C   UNL     1      16.059  78.507  22.949  1.00  0.00     0.131 C 
ATOM     26  C   UNL     1      17.121  78.905  25.390  1.00  0.00     0.177 C 
ATOM     27  C   UNL     1      15.114  78.932  24.077  1.00  0.00     0.177 C 
ATOM     28  O   UNL     1      15.803  79.447  25.226  1.00  0.00    -0.379 OA
ENDBRANCH  20  23
ENDBRANCH   6  20
TORSDOF 4
ENDMDL
MODEL 5
REMARK VINA RESULT:    -8.148      4.131      5.407
REMARK INTER + INTRA:         -10.614
REMARK INTER:                 -10.028
REMARK INTRA:                  -0.586
REMARK UNBOUND:                -0.561
REMARK SMILES O=C(Nc1ccc(F)c(F)c1)c1ccc(F)c(S(=O)(=O)N2CCOCC2)c1
REMARK SMILES IDX 12 1 13 2 14 3 15 4 16 5 17 6 27 7 2 8 1 9 3 10 4 12 5 13
REMARK SMILES IDX 11 14 6 15 9 16 7 17 10 18 8 19 18 20 19 21 20 22 21 23
REMARK SMILES IDX 22 24 26 25 23 26 25 27 24 28
REMARK H PARENT 3 11
ROOT
ATOM      1  C   UNL     1      21.213  71.145  23.450  1.00  0.00     0.041 A 
ATOM      2  C   UNL     1      21.918  72.313  23.775  1.00  0.00     0.017 A 
ATOM      3  C   UNL     1      21.362  73.563  23.491  1.00  0.00     0.041 A 
ATOM      4  C   UNL     1      20.112  73.647  22.881  1.00  0.00     0.143 A 
ATOM      5  F   UNL     1      19.617  74.861  22.610  1.00  0.00    -0.206 F 
ATOM      6  C   UNL     1      19.419  72.490  22.544  1.00  0.00     0.119 A 
ATOM      7  C   UNL     1      19.962  71.232  22.824  1.00  0.00     0.038 A 
ENDROOT
BRANCH   1   8
ATOM      8  C   UNL     1      21.783  69.795  23.711  1.00  0.00     0.255 C 
ATOM      9  O   UNL     1      21.106  68.821  23.407  1.00  0.00    -0.269 OA
ATOM     10  N   UNL     1      23.029  69.795  24.308  1.00  0.00    -0.322 N 
ATOM     11  H   UNL     1      23.399  70.690  24.605  1.00  0.00     0.170 HD
BRANCH  10  12
ATOM     12  C   UNL     1      23.817  68.670  24.635  1.00  0.00     0.044 A 
ATOM     13  C   UNL     1      24.194  67.685  23.714  1.00  0.00     0.029 A 
ATOM     14  C   UNL     1      24.246  68.554  25.963  1.00  0.00     0.068 A 
ATOM     15  C   UNL     1      24.983  66.599  24.112  1.00  0.00     0.044 A 
ATOM     16  C   UNL     1      25.031  67.471  26.352  1.00  0.00     0.160 A 
ATOM     17  C   UNL     1      25.397  66.498  25.434  1.00  0.00     0.158 A 
ATOM     18  F   UNL     1      25.430  67.379  27.629  1.00  0.00    -0.204 F 
ATOM     19  F   UNL     1      26.152  65.459  25.812  1.00  0.00    -0.204 F 
ENDBRANCH  10  12
ENDBRANCH   1   8
BRANCH   6  20
ATOM     20  S   UNL     1      17.837  72.633  21.785  1.00  0.00     0.246 S 
ATOM     21  O   UNL     1      17.057  73.562  22.572  1.00  0.00    -0.207 OA
ATOM     22  O   UNL     1      17.344  71.297  21.515  1.00  0.00    -0.207 OA
BRANCH  20  23
ATOM     23  N   UNL     1      18.189  73.340  20.278  1.00  0.00    -0.193 NA
ATOM     24  C   UNL     1      18.163  72.422  19.094  1.00  0.00     0.131 C 
ATOM     25  C   UNL     1      17.426  74.606  20.031  1.00  0.00     0.131 C 
ATOM     26  C   UNL     1      16.922  72.670  18.232  1.00  0.00     0.177 C 
ATOM     27  C   UNL     1      17.481  74.980  18.547  1.00  0.00     0.177 C 
ATOM     28  O   UNL     1      16.872  73.999  17.695  1.00  0.00    -0.379 OA
ENDBRANCH  20  23
ENDBRANCH   6  20
TORSDOF 4
ENDMDL
MODEL 6
REMARK VINA RESULT:    -8.059      2.350      3.270
REMARK INTER + INTRA:         -10.505
REMARK INTER:                  -9.839
REMARK INTRA:                  -0.665
REMARK UNBOUND:                -0.561
REMARK SMILES O=C(Nc1ccc(F)c(F)c1)c1ccc(F)c(S(=O)(=O)N2CCOCC2)c1
REMARK SMILES IDX 12 1 13 2 14 3 15 4 16 5 17 6 27 7 2 8 1 9 3 10 4 12 5 13
REMARK SMILES IDX 11 14 6 15 9 16 7 17 10 18 8 19 18 20 19 21 20 22 21 23
REMARK SMILES IDX 22 24 26 25 23 26 25 27 24 28
REMARK H PARENT 3 11
ROOT
ATOM      1  C   UNL     1      21.572  75.798  23.891  1.00  0.00     0.041 A 
ATOM      2  C   UNL     1      22.191  77.006  24.247  1.00  0.00     0.017 A 
ATOM      3  C   UNL     1      21.423  78.165  24.383  1.00  0.00     0.041 A 
ATOM      4  C   UNL     1      20.048  78.122  24.161  1.00  0.00     0.143 A 
ATOM      5  F   UNL     1      19.348  79.255  24.286  1.00  0.00    -0.206 F 
ATOM      6  C   UNL     1      19.438  76.929  23.793  1.00  0.00     0.119 A 
ATOM      7  C   UNL     1      20.192  75.759  23.654  1.00  0.00     0.038 A 
ENDROOT
BRANCH   1   8
ATOM      8  C   UNL     1      22.359  74.547  23.708  1.00  0.00     0.255 C 
ATOM      9  O   UNL     1      23.456  74.637  23.174  1.00  0.00    -0.269 OA
ATOM     10  N   UNL     1      21.732  73.396  24.147  1.00  0.00    -0.322 N 
ATOM     11  H   UNL     1      20.771  73.482  24.454  1.00  0.00     0.170 HD
BRANCH  10  12
ATOM     12  C   UNL     1      22.254  72.084  24.132  1.00  0.00     0.044 A 
ATOM     13  C   UNL     1      22.087  71.189  23.068  1.00  0.00     0.029 A 
ATOM     14  C   UNL     1      22.986  71.674  25.253  1.00  0.00     0.068 A 
ATOM     15  C   UNL     1      22.639  69.903  23.123  1.00  0.00     0.044 A 
ATOM     16  C   UNL     1      23.533  70.394  25.301  1.00  0.00     0.160 A 
ATOM     17  C   UNL     1      23.360  69.513  24.243  1.00  0.00     0.158 A 
ATOM     18  F   UNL     1      24.230  70.021  26.383  1.00  0.00    -0.204 F 
ATOM     19  F   UNL     1      23.888  68.283  24.294  1.00  0.00    -0.204 F 
ENDBRANCH  10  12
ENDBRANCH   1   8
BRANCH   6  20
ATOM     20  S   UNL     1      17.697  76.907  23.530  1.00  0.00     0.246 S 
ATOM     21  O   UNL     1      17.062  77.273  24.777  1.00  0.00    -0.207 OA
ATOM     22  O   UNL     1      17.357  75.665  22.865  1.00  0.00    -0.207 OA
BRANCH  20  23
ATOM     23  N   UNL     1      17.457  78.152  22.397  1.00  0.00    -0.193 NA
ATOM     24  C   UNL     1      17.368  77.733  20.960  1.00  0.00     0.131 C 
ATOM     25  C   UNL     1      16.354  79.092  22.782  1.00  0.00     0.131 C 
ATOM     26  C   UNL     1      15.928  77.821  20.449  1.00  0.00     0.177 C 
ATOM     27  C   UNL     1      15.930  79.937  21.577  1.00  0.00     0.177 C 
ATOM     28  O   UNL     1      15.400  79.154  20.498  1.00  0.00    -0.379 OA
ENDBRANCH  20  23
ENDBRANCH   6  20
TORSDOF 4
ENDMDL
MODEL 7
REMARK VINA RESULT:    -7.966      4.703      6.229
REMARK INTER + INTRA:         -10.390
REMARK INTER:                 -10.168
REMARK INTRA:                  -0.221
REMARK UNBOUND:                -0.561
REMARK SMILES O=C(Nc1ccc(F)c(F)c1)c1ccc(F)c(S(=O)(=O)N2CCOCC2)c1
REMARK SMILES IDX 12 1 13 2 14 3 15 4 16 5 17 6 27 7 2 8 1 9 3 10 4 12 5 13
REMARK SMILES IDX 11 14 6 15 9 16 7 17 10 18 8 19 18 20 19 21 20 22 21 23
REMARK SMILES IDX 22 24 26 25 23 26 25 27 24 28
REMARK H PARENT 3 11
ROOT
ATOM      1  C   UNL     1      21.749  71.508  23.871  1.00  0.00     0.041 A 
ATOM      2  C   UNL     1      21.724  72.894  24.086  1.00  0.00     0.017 A 
ATOM      3  C   UNL     1      20.772  73.680  23.433  1.00  0.00     0.041 A 
ATOM      4  C   UNL     1      19.854  73.089  22.567  1.00  0.00     0.143 A 
ATOM      5  F   UNL     1      18.966  73.877  21.948  1.00  0.00    -0.206 F 
ATOM      6  C   UNL     1      19.888  71.719  22.342  1.00  0.00     0.119 A 
ATOM      7  C   UNL     1      20.834  70.917  22.990  1.00  0.00     0.038 A 
ENDROOT
BRANCH   1   8
ATOM      8  C   UNL     1      22.765  70.639  24.526  1.00  0.00     0.255 C 
ATOM      9  O   UNL     1      23.438  71.126  25.425  1.00  0.00    -0.269 OA
ATOM     10  N   UNL     1      22.855  69.359  24.012  1.00  0.00    -0.322 N 
ATOM     11  H   UNL     1      22.308  69.155  23.185  1.00  0.00     0.170 HD
BRANCH  10  12
ATOM     12  C   UNL     1      23.699  68.319  24.460  1.00  0.00     0.044 A 
ATOM     13  C   UNL     1      24.083  67.230  23.669  1.00  0.00     0.029 A 
ATOM     14  C   UNL     1      24.177  68.404  25.774  1.00  0.00     0.068 A 
ATOM     15  C   UNL     1      24.929  66.238  24.181  1.00  0.00     0.044 A 
ATOM     16  C   UNL     1      25.017  67.414  26.277  1.00  0.00     0.160 A 
ATOM     17  C   UNL     1      25.391  66.337  25.486  1.00  0.00     0.158 A 
ATOM     18  F   UNL     1      25.463  67.514  27.537  1.00  0.00    -0.204 F 
ATOM     19  F   UNL     1      26.201  65.387  25.974  1.00  0.00    -0.204 F 
ENDBRANCH  10  12
ENDBRANCH   1   8
BRANCH   6  20
ATOM     20  S   UNL     1      18.706  71.003  21.251  1.00  0.00     0.246 S 
ATOM     21  O   UNL     1      17.392  71.378  21.723  1.00  0.00    -0.207 OA
ATOM     22  O   UNL     1      19.054  69.609  21.062  1.00  0.00    -0.207 OA
BRANCH  20  23
ATOM     23  N   UNL     1      19.012  71.789  19.774  1.00  0.00    -0.193 NA
ATOM     24  C   UNL     1      19.858  71.041  18.788  1.00  0.00     0.131 C 
ATOM     25  C   UNL     1      17.776  72.357  19.144  1.00  0.00     0.131 C 
ATOM     26  C   UNL     1      19.012  70.509  17.628  1.00  0.00     0.177 C 
ATOM     27  C   UNL     1      18.036  72.699  17.674  1.00  0.00     0.177 C 
ATOM     28  O   UNL     1      18.373  71.552  16.879  1.00  0.00    -0.379 OA
ENDBRANCH  20  23
ENDBRANCH   6  20
TORSDOF 4
ENDMDL
MODEL 8
REMARK VINA RESULT:    -7.791      7.130      9.416
REMARK INTER + INTRA:         -10.174
REMARK INTER:                  -9.552
REMARK INTRA:                  -0.622
REMARK UNBOUND:                -0.561
REMARK SMILES O=C(Nc1ccc(F)c(F)c1)c1ccc(F)c(S(=O)(=O)N2CCOCC2)c1
REMARK SMILES IDX 12 1 13 2 14 3 15 4 16 5 17 6 27 7 2 8 1 9 3 10 4 12 5 13
REMARK SMILES IDX 11 14 6 15 9 16 7 17 10 18 8 19 18 20 19 21 20 22 21 23
REMARK SMILES IDX 22 24 26 25 23 26 25 27 24 28
REMARK H PARENT 3 11
ROOT
ATOM      1  C   UNL     1      21.248  69.108  20.910  1.00  0.00     0.041 A 
ATOM      2  C   UNL     1      20.113  69.856  21.255  1.00  0.00     0.017 A 
ATOM      3  C   UNL     1      19.021  69.903  20.385  1.00  0.00     0.041 A 
ATOM      4  C   UNL     1      19.063  69.214  19.175  1.00  0.00     0.143 A 
ATOM      5  F   UNL     1      18.004  69.294  18.360  1.00  0.00    -0.206 F 
ATOM      6  C   UNL     1      20.193  68.485  18.826  1.00  0.00     0.119 A 
ATOM      7  C   UNL     1      21.294  68.426  19.687  1.00  0.00     0.038 A 
ENDROOT
BRANCH   1   8
ATOM      8  C   UNL     1      22.442  69.054  21.798  1.00  0.00     0.255 C 
ATOM      9  O   UNL     1      23.411  69.737  21.491  1.00  0.00    -0.269 OA
ATOM     10  N   UNL     1      22.329  68.197  22.875  1.00  0.00    -0.322 N 
ATOM     11  H   UNL     1      21.503  67.612  22.915  1.00  0.00     0.170 HD
BRANCH  10  12
ATOM     12  C   UNL     1      23.284  67.975  23.891  1.00  0.00     0.044 A 
ATOM     13  C   UNL     1      24.415  67.165  23.737  1.00  0.00     0.029 A 
ATOM     14  C   UNL     1      23.074  68.619  25.117  1.00  0.00     0.068 A 
ATOM     15  C   UNL     1      25.323  66.997  24.791  1.00  0.00     0.044 A 
ATOM     16  C   UNL     1      23.981  68.448  26.161  1.00  0.00     0.160 A 
ATOM     17  C   UNL     1      25.098  67.642  26.000  1.00  0.00     0.158 A 
ATOM     18  F   UNL     1      23.762  69.073  27.326  1.00  0.00    -0.204 F 
ATOM     19  F   UNL     1      25.968  67.480  27.006  1.00  0.00    -0.204 F 
ENDBRANCH  10  12
ENDBRANCH   1   8
BRANCH   6  20
ATOM     20  S   UNL     1      20.208  67.615  17.295  1.00  0.00     0.246 S 
ATOM     21  O   UNL     1      18.945  66.923  17.172  1.00  0.00    -0.207 OA
ATOM     22  O   UNL     1      21.460  66.891  17.200  1.00  0.00    -0.207 OA
BRANCH  20  23
ATOM     23  N   UNL     1      20.274  68.861  16.138  1.00  0.00    -0.193 NA
ATOM     24  C   UNL     1      21.643  69.293  15.707  1.00  0.00     0.131 C 
ATOM     25  C   UNL     1      19.358  68.631  14.974  1.00  0.00     0.131 C 
ATOM     26  C   UNL     1      21.956  68.796  14.293  1.00  0.00     0.177 C 
ATOM     27  C   UNL     1      19.733  69.554  13.811  1.00  0.00     0.177 C 
ATOM     28  O   UNL     1      21.055  69.317  13.306  1.00  0.00    -0.379 OA
ENDBRANCH  20  23
ENDBRANCH   6  20
TORSDOF 4
ENDMDL
MODEL 9
REMARK VINA RESULT:    -7.732      6.319      8.383
REMARK INTER + INTRA:         -10.102
REMARK INTER:                  -9.484
REMARK INTRA:                  -0.618
REMARK UNBOUND:                -0.561
REMARK SMILES O=C(Nc1ccc(F)c(F)c1)c1ccc(F)c(S(=O)(=O)N2CCOCC2)c1
REMARK SMILES IDX 12 1 13 2 14 3 15 4 16 5 17 6 27 7 2 8 1 9 3 10 4 12 5 13
REMARK SMILES IDX 11 14 6 15 9 16 7 17 10 18 8 19 18 20 19 21 20 22 21 23
REMARK SMILES IDX 22 24 26 25 23 26 25 27 24 28
REMARK H PARENT 3 11
ROOT
ATOM      1  C   UNL     1      20.475  69.780  21.770  1.00  0.00     0.041 A 
ATOM      2  C   UNL     1      19.733  70.811  22.365  1.00  0.00     0.017 A 
ATOM      3  C   UNL     1      19.020  71.706  21.562  1.00  0.00     0.041 A 
ATOM      4  C   UNL     1      19.053  71.576  20.175  1.00  0.00     0.143 A 
ATOM      5  F   UNL     1      18.370  72.460  19.438  1.00  0.00    -0.206 F 
ATOM      6  C   UNL     1      19.800  70.564  19.585  1.00  0.00     0.119 A 
ATOM      7  C   UNL     1      20.517  69.660  20.375  1.00  0.00     0.038 A 
ENDROOT
BRANCH   1   8
ATOM      8  C   UNL     1      21.270  68.824  22.589  1.00  0.00     0.255 C 
ATOM      9  O   UNL     1      20.947  67.643  22.561  1.00  0.00    -0.269 OA
ATOM     10  N   UNL     1      22.287  69.396  23.329  1.00  0.00    -0.322 N 
ATOM     11  H   UNL     1      22.342  70.408  23.333  1.00  0.00     0.170 HD
BRANCH  10  12
ATOM     12  C   UNL     1      23.214  68.731  24.159  1.00  0.00     0.044 A 
ATOM     13  C   UNL     1      24.194  67.849  23.688  1.00  0.00     0.029 A 
ATOM     14  C   UNL     1      23.140  68.987  25.535  1.00  0.00     0.068 A 
ATOM     15  C   UNL     1      25.084  67.230  24.574  1.00  0.00     0.044 A 
ATOM     16  C   UNL     1      24.029  68.368  26.410  1.00  0.00     0.160 A 
ATOM     17  C   UNL     1      24.995  67.494  25.934  1.00  0.00     0.158 A 
ATOM     18  F   UNL     1      23.940  68.627  27.723  1.00  0.00    -0.204 F 
ATOM     19  F   UNL     1      25.848  66.901  26.780  1.00  0.00    -0.204 F 
ENDBRANCH  10  12
ENDBRANCH   1   8
BRANCH   6  20
ATOM     20  S   UNL     1      19.809  70.422  17.830  1.00  0.00     0.246 S 
ATOM     21  O   UNL     1      20.835  71.308  17.325  1.00  0.00    -0.207 OA
ATOM     22  O   UNL     1      18.442  70.530  17.362  1.00  0.00    -0.207 OA
BRANCH  20  23
ATOM     23  N   UNL     1      20.290  68.811  17.572  1.00  0.00    -0.193 NA
ATOM     24  C   UNL     1      19.198  67.783  17.587  1.00  0.00     0.131 C 
ATOM     25  C   UNL     1      21.201  68.652  16.392  1.00  0.00     0.131 C 
ATOM     26  C   UNL     1      18.898  67.277  16.174  1.00  0.00     0.177 C 
ATOM     27  C   UNL     1      21.286  67.179  15.979  1.00  0.00     0.177 C 
ATOM     28  O   UNL     1      20.025  66.638  15.559  1.00  0.00    -0.379 OA
ENDBRANCH  20  23
ENDBRANCH   6  20
TORSDOF 4
ENDMDL
MODEL 10
REMARK VINA RESULT:    -7.661      5.216      6.544
REMARK INTER + INTRA:         -10.014
REMARK INTER:                  -9.498
REMARK INTRA:                  -0.517
REMARK UNBOUND:                -0.561
REMARK SMILES O=C(Nc1ccc(F)c(F)c1)c1ccc(F)c(S(=O)(=O)N2CCOCC2)c1
REMARK SMILES IDX 12 1 13 2 14 3 15 4 16 5 17 6 27 7 2 8 1 9 3 10 4 12 5 13
REMARK SMILES IDX 11 14 6 15 9 16 7 17 10 18 8 19 18 20 19 21 20 22 21 23
REMARK SMILES IDX 22 24 26 25 23 26 25 27 24 28
REMARK H PARENT 3 11
ROOT
ATOM      1  C   UNL     1      20.963  69.310  21.012  1.00  0.00     0.041 A 
ATOM      2  C   UNL     1      21.476  68.528  19.965  1.00  0.00     0.017 A 
ATOM      3  C   UNL     1      20.980  68.692  18.669  1.00  0.00     0.041 A 
ATOM      4  C   UNL     1      19.976  69.625  18.419  1.00  0.00     0.143 A 
ATOM      5  F   UNL     1      19.515  69.743  17.168  1.00  0.00    -0.206 F 
ATOM      6  C   UNL     1      19.457  70.388  19.458  1.00  0.00     0.119 A 
ATOM      7  C   UNL     1      19.944  70.237  20.761  1.00  0.00     0.038 A 
ENDROOT
BRANCH   1   8
ATOM      8  C   UNL     1      21.445  69.146  22.411  1.00  0.00     0.255 C 
ATOM      9  O   UNL     1      20.622  69.245  23.312  1.00  0.00    -0.269 OA
ATOM     10  N   UNL     1      22.803  68.926  22.537  1.00  0.00    -0.322 N 
ATOM     11  H   UNL     1      23.362  68.994  21.695  1.00  0.00     0.170 HD
BRANCH  10  12
ATOM     12  C   UNL     1      23.522  68.701  23.731  1.00  0.00     0.044 A 
ATOM     13  C   UNL     1      23.590  69.618  24.787  1.00  0.00     0.029 A 
ATOM     14  C   UNL     1      24.195  67.478  23.852  1.00  0.00     0.068 A 
ATOM     15  C   UNL     1      24.320  69.322  25.945  1.00  0.00     0.044 A 
ATOM     16  C   UNL     1      24.919  67.191  25.006  1.00  0.00     0.160 A 
ATOM     17  C   UNL     1      24.983  68.106  26.047  1.00  0.00     0.158 A 
ATOM     18  F   UNL     1      25.556  66.015  25.102  1.00  0.00    -0.204 F 
ATOM     19  F   UNL     1      25.680  67.825  27.155  1.00  0.00    -0.204 F 
ENDBRANCH  10  12
ENDBRANCH   1   8
BRANCH   6  20
ATOM     20  S   UNL     1      18.197  71.565  19.105  1.00  0.00     0.246 S 
ATOM     21  O   UNL     1      16.944  70.849  19.006  1.00  0.00    -0.207 OA
ATOM     22  O   UNL     1      18.656  72.405  18.017  1.00  0.00    -0.207 OA
BRANCH  20  23
ATOM     23  N   UNL     1      18.171  72.540  20.499  1.00  0.00    -0.193 NA
ATOM     24  C   UNL     1      18.093  74.020  20.271  1.00  0.00     0.131 C 
ATOM     25  C   UNL     1      17.183  72.072  21.525  1.00  0.00     0.131 C 
ATOM     26  C   UNL     1      16.701  74.557  20.613  1.00  0.00     0.177 C 
ATOM     27  C   UNL     1      16.926  73.173  22.558  1.00  0.00     0.177 C 
ATOM     28  O   UNL     1      16.348  74.357  21.989  1.00  0.00    -0.379 OA
ENDBRANCH  20  23
ENDBRANCH   6  20
TORSDOF 4
ENDMDL
