MODEL 1
REMARK VINA RESULT:    -9.529      0.000      0.000
REMARK INTER + INTRA:         -11.644
REMARK INTER:                 -11.200
REMARK INTRA:                  -0.444
REMARK UNBOUND:                -0.444
REMARK SMILES Cc1ccc(NS(=O)(=O)c2ccc3c(c2)oc(=O)n3C)cc1F
REMARK SMILES IDX 7 1 8 2 9 3 6 4 5 6 2 7 3 8 22 9 4 10 21 11 1 12 23 13 10 14
REMARK SMILES IDX 11 15 15 16 12 17 14 18 13 19 16 20 19 21 17 22 18 23 20 24
REMARK H PARENT 6 5
ROOT
ATOM      1  S   UNL     1       2.364 -10.855  48.356  1.00  0.00     0.262 S 
ATOM      2  O   UNL     1       2.657 -11.980  47.495  1.00  0.00    -0.201 OA
ATOM      3  O   UNL     1       1.826 -11.044  49.685  1.00  0.00    -0.201 OA
ENDROOT
BRANCH   1   4
ATOM      4  N   UNL     1       3.782  -9.945  48.445  1.00  0.00    -0.280 N 
ATOM      5  H   UNL     1       4.217  -9.996  49.365  1.00  0.00     0.180 HD
BRANCH   4   6
ATOM      6  C   UNL     1       4.622  -9.823  47.304  1.00  0.00     0.052 A 
ATOM      7  C   UNL     1       6.277  -9.680  45.043  1.00  0.00    -0.015 A 
ATOM      8  C   UNL     1       6.429 -10.723  45.963  1.00  0.00     0.008 A 
ATOM      9  C   UNL     1       5.304  -8.707  45.288  1.00  0.00     0.128 A 
ATOM     10  C   UNL     1       5.602 -10.795  47.088  1.00  0.00     0.027 A 
ATOM     11  C   UNL     1       4.478  -8.770  46.406  1.00  0.00     0.066 A 
ATOM     12  C   UNL     1       7.171  -9.569  43.846  1.00  0.00     0.047 C 
ATOM     13  F   UNL     1       5.157  -7.684  44.433  1.00  0.00    -0.207 F 
ENDBRANCH   4   6
ENDBRANCH   1   4
BRANCH   1  14
ATOM     14  C   UNL     1       1.260  -9.779  47.463  1.00  0.00     0.091 A 
ATOM     15  C   UNL     1       1.163  -9.890  46.057  1.00  0.00     0.025 A 
ATOM     16  C   UNL     1       0.527  -8.821  48.174  1.00  0.00     0.071 A 
ATOM     17  C   UNL     1       0.302  -9.053  45.340  1.00  0.00     0.032 A 
ATOM     18  C   UNL     1      -0.314  -8.015  47.438  1.00  0.00     0.157 A 
ATOM     19  C   UNL     1      -0.422  -8.131  46.066  1.00  0.00     0.090 A 
ATOM     20  O   UNL     1      -1.130  -7.023  47.958  1.00  0.00    -0.408 OA
ATOM     21  N   UNL     1      -1.338  -7.183  45.680  1.00  0.00    -0.277 N 
ATOM     22  C   UNL     1      -1.764  -6.517  46.811  1.00  0.00     0.419 A 
ATOM     23  O   UNL     1      -2.583  -5.610  46.853  1.00  0.00    -0.223 OA
ATOM     24  C   UNL     1      -1.765  -6.932  44.334  1.00  0.00     0.157 C 
ENDBRANCH   1  14
TORSDOF 3
ENDMDL
MODEL 2
REMARK VINA RESULT:    -9.450      4.503      7.036
REMARK INTER + INTRA:         -11.551
REMARK INTER:                 -10.979
REMARK INTRA:                  -0.572
REMARK UNBOUND:                -0.444
REMARK SMILES Cc1ccc(NS(=O)(=O)c2ccc3c(c2)oc(=O)n3C)cc1F
REMARK SMILES IDX 7 1 8 2 9 3 6 4 5 6 2 7 3 8 22 9 4 10 21 11 1 12 23 13 10 14
REMARK SMILES IDX 11 15 15 16 12 17 14 18 13 19 16 20 19 21 17 22 18 23 20 24
REMARK H PARENT 6 5
ROOT
ATOM      1  S   UNL     1       3.271 -12.342  50.064  1.00  0.00     0.262 S 
ATOM      2  O   UNL     1       4.603 -12.690  50.508  1.00  0.00    -0.201 OA
ATOM      3  O   UNL     1       2.206 -12.086  51.008  1.00  0.00    -0.201 OA
ENDROOT
BRANCH   1   4
ATOM      4  N   UNL     1       3.446 -11.014  49.039  1.00  0.00    -0.280 N 
ATOM      5  H   UNL     1       4.135 -11.179  48.306  1.00  0.00     0.180 HD
BRANCH   4   6
ATOM      6  C   UNL     1       2.323 -10.192  48.741  1.00  0.00     0.052 A 
ATOM      7  C   UNL     1       0.061  -8.652  48.125  1.00  0.00    -0.015 A 
ATOM      8  C   UNL     1       0.430  -9.722  47.303  1.00  0.00     0.008 A 
ATOM      9  C   UNL     1       0.854  -8.357  49.237  1.00  0.00     0.128 A 
ATOM     10  C   UNL     1       1.556 -10.491  47.612  1.00  0.00     0.027 A 
ATOM     11  C   UNL     1       1.976  -9.116  49.552  1.00  0.00     0.066 A 
ATOM     12  C   UNL     1      -1.125  -7.798  47.795  1.00  0.00     0.047 C 
ATOM     13  F   UNL     1       0.534  -7.320  50.025  1.00  0.00    -0.207 F 
ENDBRANCH   4   6
ENDBRANCH   1   4
BRANCH   1  14
ATOM     14  C   UNL     1       2.730 -13.628  48.957  1.00  0.00     0.091 A 
ATOM     15  C   UNL     1       3.430 -13.849  47.748  1.00  0.00     0.025 A 
ATOM     16  C   UNL     1       1.598 -14.380  49.296  1.00  0.00     0.071 A 
ATOM     17  C   UNL     1       3.017 -14.853  46.868  1.00  0.00     0.032 A 
ATOM     18  C   UNL     1       1.221 -15.363  48.407  1.00  0.00     0.157 A 
ATOM     19  C   UNL     1       1.911 -15.591  47.233  1.00  0.00     0.090 A 
ATOM     20  O   UNL     1       0.143 -16.220  48.570  1.00  0.00    -0.408 OA
ATOM     21  N   UNL     1       1.262 -16.630  46.611  1.00  0.00    -0.277 N 
ATOM     22  C   UNL     1       0.202 -17.008  47.409  1.00  0.00     0.419 A 
ATOM     23  O   UNL     1      -0.596 -17.904  47.177  1.00  0.00    -0.223 OA
ATOM     24  C   UNL     1       1.625 -17.207  45.350  1.00  0.00     0.157 C 
ENDBRANCH   1  14
TORSDOF 3
ENDMDL
MODEL 3
REMARK VINA RESULT:    -9.365      2.741      6.776
REMARK INTER + INTRA:         -11.451
REMARK INTER:                 -10.942
REMARK INTRA:                  -0.509
REMARK UNBOUND:                -0.444
REMARK SMILES Cc1ccc(NS(=O)(=O)c2ccc3c(c2)oc(=O)n3C)cc1F
REMARK SMILES IDX 7 1 8 2 9 3 6 4 5 6 2 7 3 8 22 9 4 10 21 11 1 12 23 13 10 14
REMARK SMILES IDX 11 15 15 16 12 17 14 18 13 19 16 20 19 21 17 22 18 23 20 24
REMARK H PARENT 6 5
ROOT
ATOM      1  S   UNL     1       2.472  -9.602  49.329  1.00  0.00     0.262 S 
ATOM      2  O   UNL     1       2.327  -8.164  49.376  1.00  0.00    -0.201 OA
ATOM      3  O   UNL     1       2.761 -10.370  50.520  1.00  0.00    -0.201 OA
ENDROOT
BRANCH   1   4
ATOM      4  N   UNL     1       1.069 -10.195  48.604  1.00  0.00    -0.280 N 
ATOM      5  H   UNL     1       0.487 -10.719  49.256  1.00  0.00     0.180 HD
BRANCH   4   6
ATOM      6  C   UNL     1       0.429  -9.449  47.575  1.00  0.00     0.052 A 
ATOM      7  C   UNL     1      -0.829  -8.057  45.489  1.00  0.00    -0.015 A 
ATOM      8  C   UNL     1       0.204  -8.959  45.213  1.00  0.00     0.008 A 
ATOM      9  C   UNL     1      -1.199  -7.850  46.821  1.00  0.00     0.128 A 
ATOM     10  C   UNL     1       0.828  -9.654  46.252  1.00  0.00     0.027 A 
ATOM     11  C   UNL     1      -0.582  -8.538  47.862  1.00  0.00     0.066 A 
ATOM     12  C   UNL     1      -1.491  -7.280  44.393  1.00  0.00     0.047 C 
ATOM     13  F   UNL     1      -2.169  -6.971  47.112  1.00  0.00    -0.207 F 
ENDBRANCH   4   6
ENDBRANCH   1   4
BRANCH   1  14
ATOM     14  C   UNL     1       3.727  -9.969  48.119  1.00  0.00     0.091 A 
ATOM     15  C   UNL     1       4.167  -8.953  47.240  1.00  0.00     0.025 A 
ATOM     16  C   UNL     1       4.235 -11.272  48.045  1.00  0.00     0.071 A 
ATOM     17  C   UNL     1       5.151  -9.224  46.284  1.00  0.00     0.032 A 
ATOM     18  C   UNL     1       5.204 -11.504  47.095  1.00  0.00     0.157 A 
ATOM     19  C   UNL     1       5.647 -10.510  46.245  1.00  0.00     0.090 A 
ATOM     20  O   UNL     1       5.839 -12.717  46.876  1.00  0.00    -0.408 OA
ATOM     21  N   UNL     1       6.601 -11.095  45.446  1.00  0.00    -0.277 N 
ATOM     22  C   UNL     1       6.717 -12.417  45.823  1.00  0.00     0.419 A 
ATOM     23  O   UNL     1       7.473 -13.245  45.335  1.00  0.00    -0.223 OA
ATOM     24  C   UNL     1       7.335 -10.439  44.404  1.00  0.00     0.157 C 
ENDBRANCH   1  14
TORSDOF 3
ENDMDL
MODEL 4
REMARK VINA RESULT:    -9.361      4.261      6.547
REMARK INTER + INTRA:         -11.446
REMARK INTER:                 -10.850
REMARK INTRA:                  -0.596
REMARK UNBOUND:                -0.444
REMARK SMILES Cc1ccc(NS(=O)(=O)c2ccc3c(c2)oc(=O)n3C)cc1F
REMARK SMILES IDX 7 1 8 2 9 3 6 4 5 6 2 7 3 8 22 9 4 10 21 11 1 12 23 13 10 14
REMARK SMILES IDX 11 15 15 16 12 17 14 18 13 19 16 20 19 21 17 22 18 23 20 24
REMARK H PARENT 6 5
ROOT
ATOM      1  S   UNL     1       3.443 -11.225  49.779  1.00  0.00     0.262 S 
ATOM      2  O   UNL     1       3.127 -10.041  50.548  1.00  0.00    -0.201 OA
ATOM      3  O   UNL     1       4.197 -12.317  50.354  1.00  0.00    -0.201 OA
ENDROOT
BRANCH   1   4
ATOM      4  N   UNL     1       1.977 -11.806  49.180  1.00  0.00    -0.280 N 
ATOM      5  H   UNL     1       1.552 -11.167  48.510  1.00  0.00     0.180 HD
BRANCH   4   6
ATOM      6  C   UNL     1       1.787 -13.204  48.998  1.00  0.00     0.052 A 
ATOM      7  C   UNL     1       1.323 -15.952  48.677  1.00  0.00    -0.015 A 
ATOM      8  C   UNL     1       0.865 -15.289  49.820  1.00  0.00     0.008 A 
ATOM      9  C   UNL     1       2.032 -15.223  47.718  1.00  0.00     0.128 A 
ATOM     10  C   UNL     1       1.095 -13.919  49.978  1.00  0.00     0.027 A 
ATOM     11  C   UNL     1       2.265 -13.860  47.868  1.00  0.00     0.066 A 
ATOM     12  C   UNL     1       1.113 -17.425  48.502  1.00  0.00     0.047 C 
ATOM     13  F   UNL     1       2.502 -15.843  46.626  1.00  0.00    -0.207 F 
ENDBRANCH   4   6
ENDBRANCH   1   4
BRANCH   1  14
ATOM     14  C   UNL     1       4.287 -10.688  48.305  1.00  0.00     0.091 A 
ATOM     15  C   UNL     1       5.419 -11.402  47.849  1.00  0.00     0.025 A 
ATOM     16  C   UNL     1       3.824  -9.546  47.639  1.00  0.00     0.071 A 
ATOM     17  C   UNL     1       6.092 -10.994  46.694  1.00  0.00     0.032 A 
ATOM     18  C   UNL     1       4.509  -9.173  46.503  1.00  0.00     0.157 A 
ATOM     19  C   UNL     1       5.606  -9.877  46.047  1.00  0.00     0.090 A 
ATOM     20  O   UNL     1       4.198  -8.087  45.700  1.00  0.00    -0.408 OA
ATOM     21  N   UNL     1       6.023  -9.228  44.910  1.00  0.00    -0.277 N 
ATOM     22  C   UNL     1       5.182  -8.155  44.700  1.00  0.00     0.419 A 
ATOM     23  O   UNL     1       5.247  -7.353  43.780  1.00  0.00    -0.223 OA
ATOM     24  C   UNL     1       7.142  -9.603  44.096  1.00  0.00     0.157 C 
ENDBRANCH   1  14
TORSDOF 3
ENDMDL
MODEL 5
REMARK VINA RESULT:    -9.345      1.444      2.091
REMARK INTER + INTRA:         -11.427
REMARK INTER:                 -10.855
REMARK INTRA:                  -0.573
REMARK UNBOUND:                -0.444
REMARK SMILES Cc1ccc(NS(=O)(=O)c2ccc3c(c2)oc(=O)n3C)cc1F
REMARK SMILES IDX 7 1 8 2 9 3 6 4 5 6 2 7 3 8 22 9 4 10 21 11 1 12 23 13 10 14
REMARK SMILES IDX 11 15 15 16 12 17 14 18 13 19 16 20 19 21 17 22 18 23 20 24
REMARK H PARENT 6 5
ROOT
ATOM      1  S   UNL     1       3.068 -11.338  49.152  1.00  0.00     0.262 S 
ATOM      2  O   UNL     1       2.901 -12.161  47.975  1.00  0.00    -0.201 OA
ATOM      3  O   UNL     1       2.922 -11.887  50.482  1.00  0.00    -0.201 OA
ENDROOT
BRANCH   1   4
ATOM      4  N   UNL     1       4.583 -10.608  49.008  1.00  0.00    -0.280 N 
ATOM      5  H   UNL     1       5.247 -10.954  49.699  1.00  0.00     0.180 HD
BRANCH   4   6
ATOM      6  C   UNL     1       5.074 -10.235  47.726  1.00  0.00     0.052 A 
ATOM      7  C   UNL     1       6.045  -9.594  45.173  1.00  0.00    -0.015 A 
ATOM      8  C   UNL     1       6.546 -10.705  45.859  1.00  0.00     0.008 A 
ATOM      9  C   UNL     1       5.075  -8.803  45.796  1.00  0.00     0.128 A 
ATOM     10  C   UNL     1       6.059 -11.026  47.130  1.00  0.00     0.027 A 
ATOM     11  C   UNL     1       4.585  -9.115  47.060  1.00  0.00     0.066 A 
ATOM     12  C   UNL     1       6.574  -9.216  43.823  1.00  0.00     0.047 C 
ATOM     13  F   UNL     1       4.598  -7.719  45.167  1.00  0.00    -0.207 F 
ENDBRANCH   4   6
ENDBRANCH   1   4
BRANCH   1  14
ATOM     14  C   UNL     1       1.950  -9.960  48.999  1.00  0.00     0.091 A 
ATOM     15  C   UNL     1       2.056  -8.871  49.895  1.00  0.00     0.025 A 
ATOM     16  C   UNL     1       0.966  -9.996  48.004  1.00  0.00     0.071 A 
ATOM     17  C   UNL     1       1.186  -7.782  49.788  1.00  0.00     0.032 A 
ATOM     18  C   UNL     1       0.127  -8.906  47.925  1.00  0.00     0.157 A 
ATOM     19  C   UNL     1       0.238  -7.834  48.789  1.00  0.00     0.090 A 
ATOM     20  O   UNL     1      -0.896  -8.746  47.003  1.00  0.00    -0.408 OA
ATOM     21  N   UNL     1      -0.746  -6.949  48.419  1.00  0.00    -0.277 N 
ATOM     22  C   UNL     1      -1.426  -7.493  47.349  1.00  0.00     0.419 A 
ATOM     23  O   UNL     1      -2.364  -6.983  46.752  1.00  0.00    -0.223 OA
ATOM     24  C   UNL     1      -1.014  -5.687  49.044  1.00  0.00     0.157 C 
ENDBRANCH   1  14
TORSDOF 3
ENDMDL
MODEL 6
REMARK VINA RESULT:    -9.307      3.691      6.102
REMARK INTER + INTRA:         -11.383
REMARK INTER:                 -10.831
REMARK INTRA:                  -0.552
REMARK UNBOUND:                -0.444
REMARK SMILES Cc1ccc(NS(=O)(=O)c2ccc3c(c2)oc(=O)n3C)cc1F
REMARK SMILES IDX 7 1 8 2 9 3 6 4 5 6 2 7 3 8 22 9 4 10 21 11 1 12 23 13 10 14
REMARK SMILES IDX 11 15 15 16 12 17 14 18 13 19 16 20 19 21 17 22 18 23 20 24
REMARK H PARENT 6 5
ROOT
ATOM      1  S   UNL     1       4.557  -9.934  48.151  1.00  0.00     0.262 S 
ATOM      2  O   UNL     1       5.049 -10.249  46.828  1.00  0.00    -0.201 OA
ATOM      3  O   UNL     1       5.460  -9.620  49.236  1.00  0.00    -0.201 OA
ENDROOT
BRANCH   1   4
ATOM      4  N   UNL     1       3.451  -8.674  47.957  1.00  0.00    -0.280 N 
ATOM      5  H   UNL     1       3.787  -7.799  48.357  1.00  0.00     0.180 HD
BRANCH   4   6
ATOM      6  C   UNL     1       2.634  -8.618  46.793  1.00  0.00     0.052 A 
ATOM      7  C   UNL     1       0.944  -8.515  44.556  1.00  0.00    -0.015 A 
ATOM      8  C   UNL     1       0.658  -9.381  45.617  1.00  0.00     0.008 A 
ATOM      9  C   UNL     1       2.096  -7.726  44.628  1.00  0.00     0.128 A 
ATOM     10  C   UNL     1       1.499  -9.429  46.732  1.00  0.00     0.027 A 
ATOM     11  C   UNL     1       2.939  -7.769  45.734  1.00  0.00     0.066 A 
ATOM     12  C   UNL     1       0.072  -8.468  43.339  1.00  0.00     0.047 C 
ATOM     13  F   UNL     1       2.404  -6.907  43.612  1.00  0.00    -0.207 F 
ENDBRANCH   4   6
ENDBRANCH   1   4
BRANCH   1  14
ATOM     14  C   UNL     1       3.524 -11.289  48.669  1.00  0.00     0.091 A 
ATOM     15  C   UNL     1       2.729 -11.158  49.830  1.00  0.00     0.025 A 
ATOM     16  C   UNL     1       3.541 -12.475  47.924  1.00  0.00     0.071 A 
ATOM     17  C   UNL     1       1.913 -12.212  50.251  1.00  0.00     0.032 A 
ATOM     18  C   UNL     1       2.724 -13.493  48.364  1.00  0.00     0.157 A 
ATOM     19  C   UNL     1       1.935 -13.362  49.490  1.00  0.00     0.090 A 
ATOM     20  O   UNL     1       2.590 -14.732  47.757  1.00  0.00    -0.408 OA
ATOM     21  N   UNL     1       1.266 -14.555  49.621  1.00  0.00    -0.277 N 
ATOM     22  C   UNL     1       1.656 -15.377  48.585  1.00  0.00     0.419 A 
ATOM     23  O   UNL     1       1.264 -16.517  48.376  1.00  0.00    -0.223 OA
ATOM     24  C   UNL     1       0.333 -14.880  50.660  1.00  0.00     0.157 C 
ENDBRANCH   1  14
TORSDOF 3
ENDMDL
MODEL 7
REMARK VINA RESULT:    -9.106      4.605      6.021
REMARK INTER + INTRA:         -11.147
REMARK INTER:                 -11.052
REMARK INTRA:                  -0.095
REMARK UNBOUND:                -0.444
REMARK SMILES Cc1ccc(NS(=O)(=O)c2ccc3c(c2)oc(=O)n3C)cc1F
REMARK SMILES IDX 7 1 8 2 9 3 6 4 5 6 2 7 3 8 22 9 4 10 21 11 1 12 23 13 10 14
REMARK SMILES IDX 11 15 15 16 12 17 14 18 13 19 16 20 19 21 17 22 18 23 20 24
REMARK H PARENT 6 5
ROOT
ATOM      1  S   UNL     1       2.583 -12.450  49.522  1.00  0.00     0.262 S 
ATOM      2  O   UNL     1       1.197 -12.787  49.766  1.00  0.00    -0.201 OA
ATOM      3  O   UNL     1       3.474 -12.096  50.604  1.00  0.00    -0.201 OA
ENDROOT
BRANCH   1   4
ATOM      4  N   UNL     1       3.236 -13.740  48.653  1.00  0.00    -0.280 N 
ATOM      5  H   UNL     1       4.168 -13.993  48.978  1.00  0.00     0.180 HD
BRANCH   4   6
ATOM      6  C   UNL     1       2.387 -14.771  48.163  1.00  0.00     0.052 A 
ATOM      7  C   UNL     1       0.648 -16.782  47.266  1.00  0.00    -0.015 A 
ATOM      8  C   UNL     1       0.810 -16.549  48.636  1.00  0.00     0.008 A 
ATOM      9  C   UNL     1       1.386 -16.011  46.364  1.00  0.00     0.128 A 
ATOM     10  C   UNL     1       1.674 -15.545  49.082  1.00  0.00     0.027 A 
ATOM     11  C   UNL     1       2.249 -15.010  46.799  1.00  0.00     0.066 A 
ATOM     12  C   UNL     1      -0.251 -17.872  46.768  1.00  0.00     0.047 C 
ATOM     13  F   UNL     1       1.267 -16.233  45.047  1.00  0.00    -0.207 F 
ENDBRANCH   4   6
ENDBRANCH   1   4
BRANCH   1  14
ATOM     14  C   UNL     1       2.604 -11.123  48.334  1.00  0.00     0.091 A 
ATOM     15  C   UNL     1       1.386 -10.656  47.787  1.00  0.00     0.025 A 
ATOM     16  C   UNL     1       3.836 -10.584  47.944  1.00  0.00     0.071 A 
ATOM     17  C   UNL     1       1.385  -9.616  46.853  1.00  0.00     0.032 A 
ATOM     18  C   UNL     1       3.798  -9.559  47.024  1.00  0.00     0.157 A 
ATOM     19  C   UNL     1       2.610  -9.091  46.499  1.00  0.00     0.090 A 
ATOM     20  O   UNL     1       4.905  -8.888  46.527  1.00  0.00    -0.408 OA
ATOM     21  N   UNL     1       2.953  -8.083  45.631  1.00  0.00    -0.277 N 
ATOM     22  C   UNL     1       4.327  -7.959  45.646  1.00  0.00     0.419 A 
ATOM     23  O   UNL     1       4.990  -7.161  44.999  1.00  0.00    -0.223 OA
ATOM     24  C   UNL     1       2.038  -7.307  44.847  1.00  0.00     0.157 C 
ENDBRANCH   1  14
TORSDOF 3
ENDMDL
MODEL 8
REMARK VINA RESULT:    -9.051      3.916      5.150
REMARK INTER + INTRA:         -11.083
REMARK INTER:                 -10.425
REMARK INTRA:                  -0.657
REMARK UNBOUND:                -0.444
REMARK SMILES Cc1ccc(NS(=O)(=O)c2ccc3c(c2)oc(=O)n3C)cc1F
REMARK SMILES IDX 7 1 8 2 9 3 6 4 5 6 2 7 3 8 22 9 4 10 21 11 1 12 23 13 10 14
REMARK SMILES IDX 11 15 15 16 12 17 14 18 13 19 16 20 19 21 17 22 18 23 20 24
REMARK H PARENT 6 5
ROOT
ATOM      1  S   UNL     1       4.744 -10.995  48.332  1.00  0.00     0.262 S 
ATOM      2  O   UNL     1       5.733 -10.029  48.757  1.00  0.00    -0.201 OA
ATOM      3  O   UNL     1       4.920 -11.772  47.125  1.00  0.00    -0.201 OA
ENDROOT
BRANCH   1   4
ATOM      4  N   UNL     1       4.504 -12.033  49.640  1.00  0.00    -0.280 N 
ATOM      5  H   UNL     1       4.856 -11.643  50.513  1.00  0.00     0.180 HD
BRANCH   4   6
ATOM      6  C   UNL     1       3.350 -12.865  49.686  1.00  0.00     0.052 A 
ATOM      7  C   UNL     1       1.132 -14.580  49.749  1.00  0.00    -0.015 A 
ATOM      8  C   UNL     1       2.088 -14.701  48.735  1.00  0.00     0.008 A 
ATOM      9  C   UNL     1       1.295 -13.577  50.708  1.00  0.00     0.128 A 
ATOM     10  C   UNL     1       3.194 -13.848  48.706  1.00  0.00     0.027 A 
ATOM     11  C   UNL     1       2.393 -12.723  50.686  1.00  0.00     0.066 A 
ATOM     12  C   UNL     1      -0.077 -15.466  49.782  1.00  0.00     0.047 C 
ATOM     13  F   UNL     1       0.378 -13.426  51.675  1.00  0.00    -0.207 F 
ENDBRANCH   4   6
ENDBRANCH   1   4
BRANCH   1  14
ATOM     14  C   UNL     1       3.186 -10.140  48.215  1.00  0.00     0.091 A 
ATOM     15  C   UNL     1       2.232 -10.554  47.256  1.00  0.00     0.025 A 
ATOM     16  C   UNL     1       2.946  -9.052  49.063  1.00  0.00     0.071 A 
ATOM     17  C   UNL     1       1.005  -9.893  47.151  1.00  0.00     0.032 A 
ATOM     18  C   UNL     1       1.726  -8.426  48.935  1.00  0.00     0.157 A 
ATOM     19  C   UNL     1       0.787  -8.836  48.010  1.00  0.00     0.090 A 
ATOM     20  O   UNL     1       1.296  -7.345  49.690  1.00  0.00    -0.408 OA
ATOM     21  N   UNL     1      -0.289  -7.996  48.166  1.00  0.00    -0.277 N 
ATOM     22  C   UNL     1       0.014  -7.102  49.172  1.00  0.00     0.419 A 
ATOM     23  O   UNL     1      -0.709  -6.208  49.589  1.00  0.00    -0.223 OA
ATOM     24  C   UNL     1      -1.504  -8.043  47.408  1.00  0.00     0.157 C 
ENDBRANCH   1  14
TORSDOF 3
ENDMDL
MODEL 9
REMARK VINA RESULT:    -9.001      1.648      2.276
REMARK INTER + INTRA:         -11.023
REMARK INTER:                 -10.589
REMARK INTRA:                  -0.434
REMARK UNBOUND:                -0.444
REMARK SMILES Cc1ccc(NS(=O)(=O)c2ccc3c(c2)oc(=O)n3C)cc1F
REMARK SMILES IDX 7 1 8 2 9 3 6 4 5 6 2 7 3 8 22 9 4 10 21 11 1 12 23 13 10 14
REMARK SMILES IDX 11 15 15 16 12 17 14 18 13 19 16 20 19 21 17 22 18 23 20 24
REMARK H PARENT 6 5
ROOT
ATOM      1  S   UNL     1       2.693 -11.211  48.467  1.00  0.00     0.262 S 
ATOM      2  O   UNL     1       2.855 -12.257  47.482  1.00  0.00    -0.201 OA
ATOM      3  O   UNL     1       2.332 -11.513  49.834  1.00  0.00    -0.201 OA
ENDROOT
BRANCH   1   4
ATOM      4  N   UNL     1       4.123 -10.316  48.446  1.00  0.00    -0.280 N 
ATOM      5  H   UNL     1       4.608 -10.340  49.341  1.00  0.00     0.180 HD
BRANCH   4   6
ATOM      6  C   UNL     1       4.900 -10.245  47.256  1.00  0.00     0.052 A 
ATOM      7  C   UNL     1       6.451 -10.010  44.930  1.00  0.00    -0.015 A 
ATOM      8  C   UNL     1       5.598  -8.970  45.317  1.00  0.00     0.008 A 
ATOM      9  C   UNL     1       6.492 -11.168  45.711  1.00  0.00     0.128 A 
ATOM     10  C   UNL     1       4.829  -9.087  46.478  1.00  0.00     0.027 A 
ATOM     11  C   UNL     1       5.729 -11.293  46.868  1.00  0.00     0.066 A 
ATOM     12  C   UNL     1       7.262  -9.917  43.674  1.00  0.00     0.047 C 
ATOM     13  F   UNL     1       7.283 -12.188  45.346  1.00  0.00    -0.207 F 
ENDBRANCH   4   6
ENDBRANCH   1   4
BRANCH   1  14
ATOM     14  C   UNL     1       1.497 -10.059  47.823  1.00  0.00     0.091 A 
ATOM     15  C   UNL     1       0.771  -9.235  48.714  1.00  0.00     0.025 A 
ATOM     16  C   UNL     1       1.279 -10.012  46.441  1.00  0.00     0.071 A 
ATOM     17  C   UNL     1      -0.172  -8.325  48.225  1.00  0.00     0.032 A 
ATOM     18  C   UNL     1       0.345  -9.103  45.993  1.00  0.00     0.157 A 
ATOM     19  C   UNL     1      -0.354  -8.286  46.859  1.00  0.00     0.090 A 
ATOM     20  O   UNL     1       0.001  -8.896  44.666  1.00  0.00    -0.408 OA
ATOM     21  N   UNL     1      -1.182  -7.523  46.072  1.00  0.00    -0.277 N 
ATOM     22  C   UNL     1      -0.971  -7.886  44.757  1.00  0.00     0.419 A 
ATOM     23  O   UNL     1      -1.530  -7.415  43.777  1.00  0.00    -0.223 OA
ATOM     24  C   UNL     1      -2.103  -6.531  46.543  1.00  0.00     0.157 C 
ENDBRANCH   1  14
TORSDOF 3
ENDMDL
MODEL 10
REMARK VINA RESULT:    -8.960      4.110      6.417
REMARK INTER + INTRA:         -10.976
REMARK INTER:                 -10.266
REMARK INTRA:                  -0.710
REMARK UNBOUND:                -0.444
REMARK SMILES Cc1ccc(NS(=O)(=O)c2ccc3c(c2)oc(=O)n3C)cc1F
REMARK SMILES IDX 7 1 8 2 9 3 6 4 5 6 2 7 3 8 22 9 4 10 21 11 1 12 23 13 10 14
REMARK SMILES IDX 11 15 15 16 12 17 14 18 13 19 16 20 19 21 17 22 18 23 20 24
REMARK H PARENT 6 5
ROOT
ATOM      1  S   UNL     1       5.156 -10.956  48.783  1.00  0.00     0.262 S 
ATOM      2  O   UNL     1       6.431 -11.383  48.249  1.00  0.00    -0.201 OA
ATOM      3  O   UNL     1       5.043 -10.414  50.119  1.00  0.00    -0.201 OA
ENDROOT
BRANCH   1   4
ATOM      4  N   UNL     1       4.524  -9.854  47.673  1.00  0.00    -0.280 N 
ATOM      5  H   UNL     1       4.975  -9.920  46.762  1.00  0.00     0.180 HD
BRANCH   4   6
ATOM      6  C   UNL     1       3.145  -9.506  47.722  1.00  0.00     0.052 A 
ATOM      7  C   UNL     1       0.405  -8.909  47.785  1.00  0.00    -0.015 A 
ATOM      8  C   UNL     1       0.940  -9.656  46.730  1.00  0.00     0.008 A 
ATOM      9  C   UNL     1       1.266  -8.451  48.786  1.00  0.00     0.128 A 
ATOM     10  C   UNL     1       2.304  -9.955  46.701  1.00  0.00     0.027 A 
ATOM     11  C   UNL     1       2.626  -8.744  48.764  1.00  0.00     0.066 A 
ATOM     12  C   UNL     1      -1.050  -8.552  47.820  1.00  0.00     0.047 C 
ATOM     13  F   UNL     1       0.780  -7.712  49.794  1.00  0.00    -0.207 F 
ENDBRANCH   4   6
ENDBRANCH   1   4
BRANCH   1  14
ATOM     14  C   UNL     1       4.037 -12.335  48.651  1.00  0.00     0.091 A 
ATOM     15  C   UNL     1       4.162 -13.234  47.566  1.00  0.00     0.025 A 
ATOM     16  C   UNL     1       3.034 -12.487  49.616  1.00  0.00     0.071 A 
ATOM     17  C   UNL     1       3.291 -14.322  47.448  1.00  0.00     0.032 A 
ATOM     18  C   UNL     1       2.195 -13.570  49.470  1.00  0.00     0.157 A 
ATOM     19  C   UNL     1       2.324 -14.458  48.420  1.00  0.00     0.090 A 
ATOM     20  O   UNL     1       1.155 -13.899  50.325  1.00  0.00    -0.408 OA
ATOM     21  N   UNL     1       1.335 -15.395  48.597  1.00  0.00    -0.277 N 
ATOM     22  C   UNL     1       0.633 -15.063  49.738  1.00  0.00     0.419 A 
ATOM     23  O   UNL     1      -0.315 -15.674  50.209  1.00  0.00    -0.223 OA
ATOM     24  C   UNL     1       1.080 -16.515  47.738  1.00  0.00     0.157 C 
ENDBRANCH   1  14
TORSDOF 3
ENDMDL
