MODEL 1
REMARK VINA RESULT:    -9.217      0.000      0.000
REMARK INTER + INTRA:         -11.273
REMARK INTER:                 -10.834
REMARK INTRA:                  -0.439
REMARK UNBOUND:                -0.439
REMARK SMILES CCNC(=S)N1CCN(S(=O)(=O)c2ccc(C)c(C)c2)CC1
REMARK SMILES IDX 3 1 4 2 5 3 6 4 7 5 8 6 9 7 21 8 22 9 2 11 1 12 10 13 11 14
REMARK SMILES IDX 12 15 13 16 14 17 20 18 15 19 18 20 16 21 19 22 17 23
REMARK H PARENT 3 10
ROOT
ATOM      1  N   UNL     1       0.381 -15.558  49.393  1.00  0.00    -0.363 N 
ATOM      2  C   UNL     1       0.819 -14.481  50.114  1.00  0.00     0.169 C 
ATOM      3  S   UNL     1      -0.126 -14.025  51.420  1.00  0.00    -0.041 S 
ATOM      4  N   UNL     1       1.974 -13.851  49.691  1.00  0.00    -0.347 N 
ATOM      5  C   UNL     1       2.372 -13.839  48.272  1.00  0.00     0.135 C 
ATOM      6  C   UNL     1       2.830 -12.446  47.811  1.00  0.00     0.124 C 
ATOM      7  N   UNL     1       4.021 -11.970  48.591  1.00  0.00    -0.194 NA
ATOM      8  C   UNL     1       4.059 -12.506  49.995  1.00  0.00     0.124 C 
ATOM      9  C   UNL     1       2.662 -12.846  50.526  1.00  0.00     0.135 C 
ATOM     10  H   UNL     1      -0.525 -15.857  49.738  1.00  0.00     0.162 HD
ENDROOT
BRANCH   1  11
ATOM     11  C   UNL     1       1.239 -16.687  49.050  1.00  0.00     0.112 C 
ATOM     12  C   UNL     1       0.684 -17.452  47.865  1.00  0.00     0.027 C 
ENDBRANCH   1  11
BRANCH   7  13
ATOM     13  S   UNL     1       4.316 -10.288  48.501  1.00  0.00     0.243 S 
ATOM     14  O   UNL     1       5.218  -9.935  49.575  1.00  0.00    -0.207 OA
ATOM     15  O   UNL     1       3.030  -9.635  48.361  1.00  0.00    -0.207 OA
BRANCH  13  16
ATOM     16  C   UNL     1       5.209 -10.126  46.977  1.00  0.00     0.082 A 
ATOM     17  C   UNL     1       6.161 -11.090  46.648  1.00  0.00     0.022 A 
ATOM     18  C   UNL     1       4.968  -9.040  46.134  1.00  0.00     0.025 A 
ATOM     19  C   UNL     1       6.867 -10.973  45.452  1.00  0.00     0.005 A 
ATOM     20  C   UNL     1       5.675  -8.916  44.926  1.00  0.00    -0.047 A 
ATOM     21  C   UNL     1       6.632  -9.895  44.581  1.00  0.00    -0.048 A 
ATOM     22  C   UNL     1       5.401  -7.737  44.032  1.00  0.00     0.044 C 
ATOM     23  C   UNL     1       7.420  -9.800  43.302  1.00  0.00     0.044 C 
ENDBRANCH  13  16
ENDBRANCH   7  13
TORSDOF 3
ENDMDL
MODEL 2
REMARK VINA RESULT:    -9.098      3.104      7.348
REMARK INTER + INTRA:         -11.134
REMARK INTER:                 -10.696
REMARK INTRA:                  -0.437
REMARK UNBOUND:                -0.439
REMARK SMILES CCNC(=S)N1CCN(S(=O)(=O)c2ccc(C)c(C)c2)CC1
REMARK SMILES IDX 3 1 4 2 5 3 6 4 7 5 8 6 9 7 21 8 22 9 2 11 1 12 10 13 11 14
REMARK SMILES IDX 12 15 13 16 14 17 20 18 15 19 18 20 16 21 19 22 17 23
REMARK H PARENT 3 10
ROOT
ATOM      1  N   UNL     1       1.960  -6.086  45.142  1.00  0.00    -0.363 N 
ATOM      2  C   UNL     1       1.533  -6.725  46.275  1.00  0.00     0.169 C 
ATOM      3  S   UNL     1       0.527  -5.850  47.289  1.00  0.00    -0.041 S 
ATOM      4  N   UNL     1       1.987  -8.011  46.497  1.00  0.00    -0.347 N 
ATOM      5  C   UNL     1       3.296  -8.465  45.996  1.00  0.00     0.135 C 
ATOM      6  C   UNL     1       4.082  -9.250  47.058  1.00  0.00     0.124 C 
ATOM      7  N   UNL     1       3.344 -10.482  47.495  1.00  0.00    -0.194 NA
ATOM      8  C   UNL     1       1.850 -10.332  47.416  1.00  0.00     0.124 C 
ATOM      9  C   UNL     1       1.404  -8.871  47.545  1.00  0.00     0.135 C 
ATOM     10  H   UNL     1       1.648  -5.120  45.154  1.00  0.00     0.162 HD
ENDROOT
BRANCH   1  11
ATOM     11  C   UNL     1       1.868  -6.679  43.813  1.00  0.00     0.112 C 
ATOM     12  C   UNL     1       0.424  -6.931  43.429  1.00  0.00     0.027 C 
ENDBRANCH   1  11
BRANCH   7  13
ATOM     13  S   UNL     1       3.877 -11.156  48.974  1.00  0.00     0.243 S 
ATOM     14  O   UNL     1       3.448 -10.281  50.043  1.00  0.00    -0.207 OA
ATOM     15  O   UNL     1       5.274 -11.502  48.807  1.00  0.00    -0.207 OA
BRANCH  13  16
ATOM     16  C   UNL     1       2.927 -12.649  49.090  1.00  0.00     0.082 A 
ATOM     17  C   UNL     1       3.135 -13.656  48.150  1.00  0.00     0.022 A 
ATOM     18  C   UNL     1       1.977 -12.799  50.103  1.00  0.00     0.025 A 
ATOM     19  C   UNL     1       2.394 -14.834  48.234  1.00  0.00     0.005 A 
ATOM     20  C   UNL     1       1.227 -13.983  50.195  1.00  0.00    -0.047 A 
ATOM     21  C   UNL     1       1.441 -15.012  49.252  1.00  0.00    -0.048 A 
ATOM     22  C   UNL     1       0.207 -14.124  51.292  1.00  0.00     0.044 C 
ATOM     23  C   UNL     1       0.656 -16.295  49.305  1.00  0.00     0.044 C 
ENDBRANCH  13  16
ENDBRANCH   7  13
TORSDOF 3
ENDMDL
MODEL 3
REMARK VINA RESULT:    -8.857      4.097      7.372
REMARK INTER + INTRA:         -10.850
REMARK INTER:                 -10.526
REMARK INTRA:                  -0.324
REMARK UNBOUND:                -0.439
REMARK SMILES CCNC(=S)N1CCN(S(=O)(=O)c2ccc(C)c(C)c2)CC1
REMARK SMILES IDX 3 1 4 2 5 3 6 4 7 5 8 6 9 7 21 8 22 9 2 11 1 12 10 13 11 14
REMARK SMILES IDX 12 15 13 16 14 17 20 18 15 19 18 20 16 21 19 22 17 23
REMARK H PARENT 3 10
ROOT
ATOM      1  N   UNL     1      -0.274  -6.695  44.942  1.00  0.00    -0.363 N 
ATOM      2  C   UNL     1       0.649  -6.607  45.948  1.00  0.00     0.169 C 
ATOM      3  S   UNL     1       1.703  -5.306  45.881  1.00  0.00    -0.041 S 
ATOM      4  N   UNL     1       0.653  -7.603  46.906  1.00  0.00    -0.347 N 
ATOM      5  C   UNL     1       0.218  -8.976  46.593  1.00  0.00     0.135 C 
ATOM      6  C   UNL     1       1.178 -10.031  47.165  1.00  0.00     0.124 C 
ATOM      7  N   UNL     1       1.269  -9.944  48.661  1.00  0.00    -0.194 NA
ATOM      8  C   UNL     1       1.056  -8.551  49.183  1.00  0.00     0.124 C 
ATOM      9  C   UNL     1       1.431  -7.479  48.153  1.00  0.00     0.135 C 
ATOM     10  H   UNL     1      -0.100  -5.971  44.252  1.00  0.00     0.162 HD
ENDROOT
BRANCH   1  11
ATOM     11  C   UNL     1      -1.698  -6.892  45.185  1.00  0.00     0.112 C 
ATOM     12  C   UNL     1      -2.191  -5.989  46.298  1.00  0.00     0.027 C 
ENDBRANCH   1  11
BRANCH   7  13
ATOM     13  S   UNL     1       2.628 -10.723  49.347  1.00  0.00     0.243 S 
ATOM     14  O   UNL     1       2.678 -10.379  50.751  1.00  0.00    -0.207 OA
ATOM     15  O   UNL     1       3.755 -10.466  48.474  1.00  0.00    -0.207 OA
BRANCH  13  16
ATOM     16  C   UNL     1       2.196 -12.440  49.232  1.00  0.00     0.082 A 
ATOM     17  C   UNL     1       1.476 -13.025  50.273  1.00  0.00     0.022 A 
ATOM     18  C   UNL     1       2.586 -13.190  48.121  1.00  0.00     0.025 A 
ATOM     19  C   UNL     1       1.130 -14.373  50.191  1.00  0.00     0.005 A 
ATOM     20  C   UNL     1       2.241 -14.548  48.031  1.00  0.00    -0.047 A 
ATOM     21  C   UNL     1       1.502 -15.144  49.077  1.00  0.00    -0.048 A 
ATOM     22  C   UNL     1       2.673 -15.338  46.826  1.00  0.00     0.044 C 
ATOM     23  C   UNL     1       1.116 -16.598  49.029  1.00  0.00     0.044 C 
ENDBRANCH  13  16
ENDBRANCH   7  13
TORSDOF 3
ENDMDL
MODEL 4
REMARK VINA RESULT:    -8.811      3.469      7.327
REMARK INTER + INTRA:         -10.796
REMARK INTER:                 -10.364
REMARK INTRA:                  -0.432
REMARK UNBOUND:                -0.439
REMARK SMILES CCNC(=S)N1CCN(S(=O)(=O)c2ccc(C)c(C)c2)CC1
REMARK SMILES IDX 3 1 4 2 5 3 6 4 7 5 8 6 9 7 21 8 22 9 2 11 1 12 10 13 11 14
REMARK SMILES IDX 12 15 13 16 14 17 20 18 15 19 18 20 16 21 19 22 17 23
REMARK H PARENT 3 10
ROOT
ATOM      1  N   UNL     1       1.438  -5.822  45.435  1.00  0.00    -0.363 N 
ATOM      2  C   UNL     1       1.068  -6.398  46.620  1.00  0.00     0.169 C 
ATOM      3  S   UNL     1       0.283  -5.405  47.718  1.00  0.00    -0.041 S 
ATOM      4  N   UNL     1       1.396  -7.725  46.820  1.00  0.00    -0.347 N 
ATOM      5  C   UNL     1       2.584  -8.330  46.191  1.00  0.00     0.135 C 
ATOM      6  C   UNL     1       3.388  -9.189  47.179  1.00  0.00     0.124 C 
ATOM      7  N   UNL     1       2.568 -10.325  47.719  1.00  0.00    -0.194 NA
ATOM      8  C   UNL     1       1.101 -10.007  47.797  1.00  0.00     0.124 C 
ATOM      9  C   UNL     1       0.838  -8.504  47.942  1.00  0.00     0.135 C 
ATOM     10  H   UNL     1       1.239  -4.827  45.460  1.00  0.00     0.162 HD
ENDROOT
BRANCH   1  11
ATOM     11  C   UNL     1       1.135  -6.412  44.136  1.00  0.00     0.112 C 
ATOM     12  C   UNL     1      -0.350  -6.679  43.993  1.00  0.00     0.027 C 
ENDBRANCH   1  11
BRANCH   7  13
ATOM     13  S   UNL     1       3.181 -11.042  49.145  1.00  0.00     0.243 S 
ATOM     14  O   UNL     1       2.588 -10.363  50.276  1.00  0.00    -0.207 OA
ATOM     15  O   UNL     1       4.619 -11.131  48.996  1.00  0.00    -0.207 OA
BRANCH  13  16
ATOM     16  C   UNL     1       2.497 -12.678  49.087  1.00  0.00     0.082 A 
ATOM     17  C   UNL     1       1.828 -13.169  50.206  1.00  0.00     0.022 A 
ATOM     18  C   UNL     1       2.644 -13.460  47.939  1.00  0.00     0.025 A 
ATOM     19  C   UNL     1       1.286 -14.453  50.170  1.00  0.00     0.005 A 
ATOM     20  C   UNL     1       2.100 -14.754  47.894  1.00  0.00    -0.047 A 
ATOM     21  C   UNL     1       1.410 -15.253  49.021  1.00  0.00    -0.048 A 
ATOM     22  C   UNL     1       2.271 -15.581  46.649  1.00  0.00     0.044 C 
ATOM     23  C   UNL     1       0.817 -16.637  49.023  1.00  0.00     0.044 C 
ENDBRANCH  13  16
ENDBRANCH   7  13
TORSDOF 3
ENDMDL
MODEL 5
REMARK VINA RESULT:    -8.804      4.055      7.496
REMARK INTER + INTRA:         -10.788
REMARK INTER:                 -10.361
REMARK INTRA:                  -0.427
REMARK UNBOUND:                -0.439
REMARK SMILES CCNC(=S)N1CCN(S(=O)(=O)c2ccc(C)c(C)c2)CC1
REMARK SMILES IDX 3 1 4 2 5 3 6 4 7 5 8 6 9 7 21 8 22 9 2 11 1 12 10 13 11 14
REMARK SMILES IDX 12 15 13 16 14 17 20 18 15 19 18 20 16 21 19 22 17 23
REMARK H PARENT 3 10
ROOT
ATOM      1  N   UNL     1      -0.428  -6.561  45.197  1.00  0.00    -0.363 N 
ATOM      2  C   UNL     1       0.599  -6.564  46.102  1.00  0.00     0.169 C 
ATOM      3  S   UNL     1       1.649  -5.260  46.042  1.00  0.00    -0.041 S 
ATOM      4  N   UNL     1       0.697  -7.644  46.959  1.00  0.00    -0.347 N 
ATOM      5  C   UNL     1       0.221  -8.983  46.571  1.00  0.00     0.135 C 
ATOM      6  C   UNL     1       1.228 -10.084  46.937  1.00  0.00     0.124 C 
ATOM      7  N   UNL     1       1.479 -10.135  48.416  1.00  0.00    -0.194 NA
ATOM      8  C   UNL     1       1.334  -8.796  49.084  1.00  0.00     0.124 C 
ATOM      9  C   UNL     1       1.605  -7.633  48.122  1.00  0.00     0.135 C 
ATOM     10  H   UNL     1      -0.322  -5.776  44.561  1.00  0.00     0.162 HD
ENDROOT
BRANCH   1  11
ATOM     11  C   UNL     1      -1.819  -6.783  45.572  1.00  0.00     0.112 C 
ATOM     12  C   UNL     1      -2.218  -5.894  46.734  1.00  0.00     0.027 C 
ENDBRANCH   1  11
BRANCH   7  13
ATOM     13  S   UNL     1       2.898 -10.971  48.878  1.00  0.00     0.243 S 
ATOM     14  O   UNL     1       3.231 -10.571  50.228  1.00  0.00    -0.207 OA
ATOM     15  O   UNL     1       3.852 -10.824  47.799  1.00  0.00    -0.207 OA
BRANCH  13  16
ATOM     16  C   UNL     1       2.356 -12.659  48.939  1.00  0.00     0.082 A 
ATOM     17  C   UNL     1       2.874 -13.567  48.017  1.00  0.00     0.022 A 
ATOM     18  C   UNL     1       1.416 -13.060  49.889  1.00  0.00     0.025 A 
ATOM     19  C   UNL     1       2.457 -14.896  48.058  1.00  0.00     0.005 A 
ATOM     20  C   UNL     1       0.990 -14.398  49.938  1.00  0.00    -0.047 A 
ATOM     21  C   UNL     1       1.520 -15.326  49.014  1.00  0.00    -0.048 A 
ATOM     22  C   UNL     1      -0.026 -14.810  50.968  1.00  0.00     0.044 C 
ATOM     23  C   UNL     1       1.089 -16.768  49.022  1.00  0.00     0.044 C 
ENDBRANCH  13  16
ENDBRANCH   7  13
TORSDOF 3
ENDMDL
MODEL 6
REMARK VINA RESULT:    -8.386      3.133      7.132
REMARK INTER + INTRA:         -10.297
REMARK INTER:                  -9.957
REMARK INTRA:                  -0.339
REMARK UNBOUND:                -0.439
REMARK SMILES CCNC(=S)N1CCN(S(=O)(=O)c2ccc(C)c(C)c2)CC1
REMARK SMILES IDX 3 1 4 2 5 3 6 4 7 5 8 6 9 7 21 8 22 9 2 11 1 12 10 13 11 14
REMARK SMILES IDX 12 15 13 16 14 17 20 18 15 19 18 20 16 21 19 22 17 23
REMARK H PARENT 3 10
ROOT
ATOM      1  N   UNL     1       1.101  -7.559  45.016  1.00  0.00    -0.363 N 
ATOM      2  C   UNL     1       2.366  -7.885  45.426  1.00  0.00     0.169 C 
ATOM      3  S   UNL     1       3.624  -7.339  44.464  1.00  0.00    -0.041 S 
ATOM      4  N   UNL     1       2.494  -8.653  46.568  1.00  0.00    -0.347 N 
ATOM      5  C   UNL     1       1.454  -9.616  46.972  1.00  0.00     0.135 C 
ATOM      6  C   UNL     1       2.049 -10.966  47.399  1.00  0.00     0.124 C 
ATOM      7  N   UNL     1       2.970 -10.817  48.576  1.00  0.00    -0.194 NA
ATOM      8  C   UNL     1       3.658  -9.481  48.619  1.00  0.00     0.124 C 
ATOM      9  C   UNL     1       3.799  -8.853  47.228  1.00  0.00     0.135 C 
ATOM     10  H   UNL     1       1.141  -7.094  44.116  1.00  0.00     0.162 HD
ENDROOT
BRANCH   1  11
ATOM     11  C   UNL     1       0.109  -6.961  45.902  1.00  0.00     0.112 C 
ATOM     12  C   UNL     1      -1.295  -7.361  45.494  1.00  0.00     0.027 C 
ENDBRANCH   1  11
BRANCH   7  13
ATOM     13  S   UNL     1       4.032 -12.132  48.831  1.00  0.00     0.243 S 
ATOM     14  O   UNL     1       4.415 -12.132  50.226  1.00  0.00    -0.207 OA
ATOM     15  O   UNL     1       5.031 -12.086  47.783  1.00  0.00    -0.207 OA
BRANCH  13  16
ATOM     16  C   UNL     1       2.986 -13.540  48.564  1.00  0.00     0.082 A 
ATOM     17  C   UNL     1       3.161 -14.300  47.409  1.00  0.00     0.022 A 
ATOM     18  C   UNL     1       1.996 -13.865  49.493  1.00  0.00     0.025 A 
ATOM     19  C   UNL     1       2.345 -15.409  47.191  1.00  0.00     0.005 A 
ATOM     20  C   UNL     1       1.170 -14.981  49.281  1.00  0.00    -0.047 A 
ATOM     21  C   UNL     1       1.350 -15.763  48.119  1.00  0.00    -0.048 A 
ATOM     22  C   UNL     1       0.108 -15.313  50.294  1.00  0.00     0.044 C 
ATOM     23  C   UNL     1       0.484 -16.963  47.844  1.00  0.00     0.044 C 
ENDBRANCH  13  16
ENDBRANCH   7  13
TORSDOF 3
ENDMDL
MODEL 7
REMARK VINA RESULT:    -8.271      2.700      3.767
REMARK INTER + INTRA:         -10.161
REMARK INTER:                  -9.853
REMARK INTRA:                  -0.308
REMARK UNBOUND:                -0.439
REMARK SMILES CCNC(=S)N1CCN(S(=O)(=O)c2ccc(C)c(C)c2)CC1
REMARK SMILES IDX 3 1 4 2 5 3 6 4 7 5 8 6 9 7 21 8 22 9 2 11 1 12 10 13 11 14
REMARK SMILES IDX 12 15 13 16 14 17 20 18 15 19 18 20 16 21 19 22 17 23
REMARK H PARENT 3 10
ROOT
ATOM      1  N   UNL     1       0.381 -15.649  49.408  1.00  0.00    -0.363 N 
ATOM      2  C   UNL     1       0.880 -14.562  50.072  1.00  0.00     0.169 C 
ATOM      3  S   UNL     1       0.035 -14.066  51.431  1.00  0.00    -0.041 S 
ATOM      4  N   UNL     1       2.009 -13.956  49.555  1.00  0.00    -0.347 N 
ATOM      5  C   UNL     1       2.305 -13.979  48.111  1.00  0.00     0.135 C 
ATOM      6  C   UNL     1       2.745 -12.603  47.588  1.00  0.00     0.124 C 
ATOM      7  N   UNL     1       3.994 -12.125  48.271  1.00  0.00    -0.194 NA
ATOM      8  C   UNL     1       4.125 -12.630  49.681  1.00  0.00     0.124 C 
ATOM      9  C   UNL     1       2.765 -12.942  50.316  1.00  0.00     0.135 C 
ATOM     10  H   UNL     1      -0.503 -15.929  49.823  1.00  0.00     0.162 HD
ENDROOT
BRANCH   1  11
ATOM     11  C   UNL     1       1.200 -16.795  49.031  1.00  0.00     0.112 C 
ATOM     12  C   UNL     1       0.720 -17.400  47.726  1.00  0.00     0.027 C 
ENDBRANCH   1  11
BRANCH   7  13
ATOM     13  S   UNL     1       4.300 -10.449  48.123  1.00  0.00     0.243 S 
ATOM     14  O   UNL     1       5.028 -10.235  46.891  1.00  0.00    -0.207 OA
ATOM     15  O   UNL     1       4.831  -9.997  49.392  1.00  0.00    -0.207 OA
BRANCH  13  16
ATOM     16  C   UNL     1       2.675  -9.771  47.908  1.00  0.00     0.082 A 
ATOM     17  C   UNL     1       1.937  -9.416  49.036  1.00  0.00     0.022 A 
ATOM     18  C   UNL     1       2.145  -9.611  46.626  1.00  0.00     0.025 A 
ATOM     19  C   UNL     1       0.660  -8.881  48.878  1.00  0.00     0.005 A 
ATOM     20  C   UNL     1       0.859  -9.071  46.458  1.00  0.00    -0.047 A 
ATOM     21  C   UNL     1       0.111  -8.699  47.597  1.00  0.00    -0.048 A 
ATOM     22  C   UNL     1       0.306  -8.909  45.068  1.00  0.00     0.044 C 
ATOM     23  C   UNL     1      -1.275  -8.125  47.467  1.00  0.00     0.044 C 
ENDBRANCH  13  16
ENDBRANCH   7  13
TORSDOF 3
ENDMDL
MODEL 8
REMARK VINA RESULT:    -7.540     14.258     15.371
REMARK INTER + INTRA:          -9.302
REMARK INTER:                  -8.962
REMARK INTRA:                  -0.340
REMARK UNBOUND:                -0.439
REMARK SMILES CCNC(=S)N1CCN(S(=O)(=O)c2ccc(C)c(C)c2)CC1
REMARK SMILES IDX 3 1 4 2 5 3 6 4 7 5 8 6 9 7 21 8 22 9 2 11 1 12 10 13 11 14
REMARK SMILES IDX 12 15 13 16 14 17 20 18 15 19 18 20 16 21 19 22 17 23
REMARK H PARENT 3 10
ROOT
ATOM      1  N   UNL     1      -9.055 -13.878  35.045  1.00  0.00    -0.363 N 
ATOM      2  C   UNL     1      -8.184 -13.970  36.096  1.00  0.00     0.169 C 
ATOM      3  S   UNL     1      -8.727 -14.804  37.443  1.00  0.00    -0.041 S 
ATOM      4  N   UNL     1      -6.956 -13.348  35.969  1.00  0.00    -0.347 N 
ATOM      5  C   UNL     1      -6.781 -12.147  35.133  1.00  0.00     0.135 C 
ATOM      6  C   UNL     1      -5.952 -11.065  35.841  1.00  0.00     0.124 C 
ATOM      7  N   UNL     1      -4.572 -11.554  36.175  1.00  0.00    -0.194 NA
ATOM      8  C   UNL     1      -4.520 -13.035  36.433  1.00  0.00     0.124 C 
ATOM      9  C   UNL     1      -5.861 -13.587  36.929  1.00  0.00     0.135 C 
ATOM     10  H   UNL     1      -9.951 -14.277  35.306  1.00  0.00     0.162 HD
ENDROOT
BRANCH   1  11
ATOM     11  C   UNL     1      -8.683 -14.209  33.674  1.00  0.00     0.112 C 
ATOM     12  C   UNL     1      -9.909 -14.516  32.837  1.00  0.00     0.027 C 
ENDBRANCH   1  11
BRANCH   7  13
ATOM     13  S   UNL     1      -3.746 -10.633  37.355  1.00  0.00     0.243 S 
ATOM     14  O   UNL     1      -3.204  -9.459  36.705  1.00  0.00    -0.207 OA
ATOM     15  O   UNL     1      -2.890 -11.544  38.087  1.00  0.00    -0.207 OA
BRANCH  13  16
ATOM     16  C   UNL     1      -5.057 -10.096  38.422  1.00  0.00     0.082 A 
ATOM     17  C   UNL     1      -5.461  -8.762  38.376  1.00  0.00     0.022 A 
ATOM     18  C   UNL     1      -5.659 -10.996  39.303  1.00  0.00     0.025 A 
ATOM     19  C   UNL     1      -6.491  -8.331  39.209  1.00  0.00     0.005 A 
ATOM     20  C   UNL     1      -6.699 -10.570  40.145  1.00  0.00    -0.047 A 
ATOM     21  C   UNL     1      -7.121  -9.223  40.095  1.00  0.00    -0.048 A 
ATOM     22  C   UNL     1      -7.333 -11.556  41.088  1.00  0.00     0.044 C 
ATOM     23  C   UNL     1      -8.225  -8.717  40.984  1.00  0.00     0.044 C 
ENDBRANCH  13  16
ENDBRANCH   7  13
TORSDOF 3
ENDMDL
MODEL 9
REMARK VINA RESULT:    -7.472     15.384     16.393
REMARK INTER + INTRA:          -9.222
REMARK INTER:                  -8.914
REMARK INTRA:                  -0.308
REMARK UNBOUND:                -0.439
REMARK SMILES CCNC(=S)N1CCN(S(=O)(=O)c2ccc(C)c(C)c2)CC1
REMARK SMILES IDX 3 1 4 2 5 3 6 4 7 5 8 6 9 7 21 8 22 9 2 11 1 12 10 13 11 14
REMARK SMILES IDX 12 15 13 16 14 17 20 18 15 19 18 20 16 21 19 22 17 23
REMARK H PARENT 3 10
ROOT
ATOM      1  N   UNL     1     -14.179 -12.247  36.956  1.00  0.00    -0.363 N 
ATOM      2  C   UNL     1     -13.065 -12.941  37.343  1.00  0.00     0.169 C 
ATOM      3  S   UNL     1     -13.209 -14.610  37.399  1.00  0.00    -0.041 S 
ATOM      4  N   UNL     1     -11.939 -12.214  37.678  1.00  0.00    -0.347 N 
ATOM      5  C   UNL     1     -12.036 -10.854  38.237  1.00  0.00     0.135 C 
ATOM      6  C   UNL     1     -11.101 -10.655  39.440  1.00  0.00     0.124 C 
ATOM      7  N   UNL     1      -9.662 -10.857  39.062  1.00  0.00    -0.194 NA
ATOM      8  C   UNL     1      -9.481 -11.842  37.941  1.00  0.00     0.124 C 
ATOM      9  C   UNL     1     -10.625 -12.860  37.869  1.00  0.00     0.135 C 
ATOM     10  H   UNL     1     -14.960 -12.886  36.846  1.00  0.00     0.162 HD
ENDROOT
BRANCH   1  11
ATOM     11  C   UNL     1     -14.156 -11.221  35.920  1.00  0.00     0.112 C 
ATOM     12  C   UNL     1     -13.308 -11.656  34.742  1.00  0.00     0.027 C 
ENDBRANCH   1  11
BRANCH   7  13
ATOM     13  S   UNL     1      -8.602 -11.128  40.377  1.00  0.00     0.243 S 
ATOM     14  O   UNL     1      -8.884 -12.441  40.914  1.00  0.00    -0.207 OA
ATOM     15  O   UNL     1      -8.654  -9.950  41.218  1.00  0.00    -0.207 OA
BRANCH  13  16
ATOM     16  C   UNL     1      -7.013 -11.201  39.592  1.00  0.00     0.082 A 
ATOM     17  C   UNL     1      -6.336 -12.419  39.553  1.00  0.00     0.022 A 
ATOM     18  C   UNL     1      -6.451 -10.050  39.036  1.00  0.00     0.025 A 
ATOM     19  C   UNL     1      -5.087 -12.487  38.937  1.00  0.00     0.005 A 
ATOM     20  C   UNL     1      -5.194 -10.111  38.412  1.00  0.00    -0.047 A 
ATOM     21  C   UNL     1      -4.507 -11.344  38.360  1.00  0.00    -0.048 A 
ATOM     22  C   UNL     1      -4.605  -8.859  37.821  1.00  0.00     0.044 C 
ATOM     23  C   UNL     1      -3.154 -11.457  37.710  1.00  0.00     0.044 C 
ENDBRANCH  13  16
ENDBRANCH   7  13
TORSDOF 3
ENDMDL
MODEL 10
REMARK VINA RESULT:    -7.464     17.868     18.968
REMARK INTER + INTRA:          -9.212
REMARK INTER:                  -8.863
REMARK INTRA:                  -0.349
REMARK UNBOUND:                -0.439
REMARK SMILES CCNC(=S)N1CCN(S(=O)(=O)c2ccc(C)c(C)c2)CC1
REMARK SMILES IDX 3 1 4 2 5 3 6 4 7 5 8 6 9 7 21 8 22 9 2 11 1 12 10 13 11 14
REMARK SMILES IDX 12 15 13 16 14 17 20 18 15 19 18 20 16 21 19 22 17 23
REMARK H PARENT 3 10
ROOT
ATOM      1  N   UNL     1      -8.242 -12.624  39.229  1.00  0.00    -0.363 N 
ATOM      2  C   UNL     1      -9.251 -13.010  38.390  1.00  0.00     0.169 C 
ATOM      3  S   UNL     1      -9.064 -14.493  37.633  1.00  0.00    -0.041 S 
ATOM      4  N   UNL     1     -10.312 -12.141  38.218  1.00  0.00    -0.347 N 
ATOM      5  C   UNL     1     -10.142 -10.682  38.339  1.00  0.00     0.135 C 
ATOM      6  C   UNL     1     -10.845  -9.921  37.204  1.00  0.00     0.124 C 
ATOM      7  N   UNL     1     -12.324 -10.178  37.198  1.00  0.00    -0.194 NA
ATOM      8  C   UNL     1     -12.687 -11.540  37.722  1.00  0.00     0.124 C 
ATOM      9  C   UNL     1     -11.554 -12.556  37.537  1.00  0.00     0.135 C 
ATOM     10  H   UNL     1      -7.481 -13.294  39.182  1.00  0.00     0.162 HD
ENDROOT
BRANCH   1  11
ATOM     11  C   UNL     1      -8.476 -12.152  40.589  1.00  0.00     0.112 C 
ATOM     12  C   UNL     1      -8.097 -13.210  41.606  1.00  0.00     0.027 C 
ENDBRANCH   1  11
BRANCH   7  13
ATOM     13  S   UNL     1     -13.118  -9.783  35.736  1.00  0.00     0.243 S 
ATOM     14  O   UNL     1     -13.297  -8.348  35.699  1.00  0.00    -0.207 OA
ATOM     15  O   UNL     1     -14.248 -10.680  35.607  1.00  0.00    -0.207 OA
BRANCH  13  16
ATOM     16  C   UNL     1     -11.910 -10.203  34.507  1.00  0.00     0.082 A 
ATOM     17  C   UNL     1     -11.853 -11.514  34.038  1.00  0.00     0.022 A 
ATOM     18  C   UNL     1     -11.026  -9.233  34.032  1.00  0.00     0.025 A 
ATOM     19  C   UNL     1     -10.909 -11.853  33.070  1.00  0.00     0.005 A 
ATOM     20  C   UNL     1     -10.072  -9.566  33.057  1.00  0.00    -0.047 A 
ATOM     21  C   UNL     1     -10.016 -10.890  32.569  1.00  0.00    -0.048 A 
ATOM     22  C   UNL     1      -9.126  -8.506  32.560  1.00  0.00     0.044 C 
ATOM     23  C   UNL     1      -9.006 -11.297  31.530  1.00  0.00     0.044 C 
ENDBRANCH  13  16
ENDBRANCH   7  13
TORSDOF 3
ENDMDL
