MODEL 1
REMARK VINA RESULT:    -9.565      0.000      0.000
REMARK INTER + INTRA:         -11.703
REMARK INTER:                 -11.243
REMARK INTRA:                  -0.460
REMARK UNBOUND:                -0.460
REMARK SMILES Cc1ccc(S(=O)(=O)N2CCN(C(=O)c3ccco3)CC2)cc1
REMARK SMILES IDX 6 1 7 2 8 3 5 4 2 5 3 6 23 7 4 8 22 9 1 10 9 11 10 12 21 13
REMARK SMILES IDX 11 14 20 15 12 16 13 17 14 18 15 19 16 20 19 21 17 22 18 23
REMARK H PARENT
ROOT
ATOM      1  S   UNL     1       4.679 -11.195  48.720  1.00  0.00     0.243 S 
ATOM      2  O   UNL     1       4.187 -10.365  49.801  1.00  0.00    -0.207 OA
ATOM      3  O   UNL     1       5.849 -12.031  48.885  1.00  0.00    -0.207 OA
ENDROOT
BRANCH   1   4
ATOM      4  C   UNL     1       4.949 -10.176  47.294  1.00  0.00     0.082 A 
ATOM      5  C   UNL     1       5.359  -8.545  45.065  1.00  0.00    -0.051 A 
ATOM      6  C   UNL     1       4.292  -8.292  45.940  1.00  0.00     0.005 A 
ATOM      7  C   UNL     1       6.202  -9.637  45.306  1.00  0.00     0.005 A 
ATOM      8  C   UNL     1       4.087  -9.104  47.057  1.00  0.00     0.022 A 
ATOM      9  C   UNL     1       6.003 -10.454  46.421  1.00  0.00     0.022 A 
ATOM     10  C   UNL     1       5.554  -7.692  43.845  1.00  0.00     0.044 C 
ENDBRANCH   1   4
BRANCH   1  11
ATOM     11  N   UNL     1       3.380 -12.190  48.230  1.00  0.00    -0.194 NA
ATOM     12  C   UNL     1       2.163 -12.141  49.106  1.00  0.00     0.124 C 
ATOM     13  C   UNL     1       3.819 -13.580  47.883  1.00  0.00     0.124 C 
ATOM     14  C   UNL     1       1.907 -13.462  49.839  1.00  0.00     0.136 C 
ATOM     15  C   UNL     1       2.628 -14.532  47.716  1.00  0.00     0.136 C 
ATOM     16  N   UNL     1       1.772 -14.584  48.907  1.00  0.00    -0.333 N 
ATOM     17  C   UNL     1       0.943 -15.653  49.259  1.00  0.00     0.289 C 
ATOM     18  O   UNL     1       0.448 -15.697  50.388  1.00  0.00    -0.265 OA
BRANCH  17  19
ATOM     19  C   UNL     1       0.666 -16.705  48.290  1.00  0.00     0.191 A 
ATOM     20  C   UNL     1       1.334 -17.899  48.071  1.00  0.00     0.056 A 
ATOM     21  O   UNL     1      -0.423 -16.650  47.459  1.00  0.00    -0.459 OA
ATOM     22  C   UNL     1       0.638 -18.584  47.048  1.00  0.00     0.043 A 
ATOM     23  C   UNL     1      -0.424 -17.782  46.711  1.00  0.00     0.196 A 
ENDBRANCH  17  19
ENDBRANCH   1  11
TORSDOF 3
ENDMDL
MODEL 2
REMARK VINA RESULT:    -9.307      3.580      7.656
REMARK INTER + INTRA:         -11.400
REMARK INTER:                 -10.947
REMARK INTRA:                  -0.453
REMARK UNBOUND:                -0.460
REMARK SMILES Cc1ccc(S(=O)(=O)N2CCN(C(=O)c3ccco3)CC2)cc1
REMARK SMILES IDX 6 1 7 2 8 3 5 4 2 5 3 6 23 7 4 8 22 9 1 10 9 11 10 12 21 13
REMARK SMILES IDX 11 14 20 15 12 16 13 17 14 18 15 19 16 20 19 21 17 22 18 23
REMARK H PARENT
ROOT
ATOM      1  S   UNL     1       3.088 -11.617  49.839  1.00  0.00     0.243 S 
ATOM      2  O   UNL     1       4.530 -11.731  49.912  1.00  0.00    -0.207 OA
ATOM      3  O   UNL     1       2.312 -11.138  50.962  1.00  0.00    -0.207 OA
ENDROOT
BRANCH   1   4
ATOM      4  C   UNL     1       2.413 -13.184  49.354  1.00  0.00     0.082 A 
ATOM      5  C   UNL     1       1.319 -15.642  48.609  1.00  0.00    -0.051 A 
ATOM      6  C   UNL     1       0.885 -15.001  49.778  1.00  0.00     0.005 A 
ATOM      7  C   UNL     1       2.323 -15.050  47.832  1.00  0.00     0.005 A 
ATOM      8  C   UNL     1       1.427 -13.770  50.151  1.00  0.00     0.022 A 
ATOM      9  C   UNL     1       2.871 -13.819  48.199  1.00  0.00     0.022 A 
ATOM     10  C   UNL     1       0.760 -16.983  48.231  1.00  0.00     0.044 C 
ENDBRANCH   1   4
BRANCH   1  11
ATOM     11  N   UNL     1       2.738 -10.625  48.492  1.00  0.00    -0.194 NA
ATOM     12  C   UNL     1       3.318  -9.242  48.541  1.00  0.00     0.124 C 
ATOM     13  C   UNL     1       1.290 -10.659  48.113  1.00  0.00     0.124 C 
ATOM     14  C   UNL     1       2.246  -8.154  48.663  1.00  0.00     0.136 C 
ATOM     15  C   UNL     1       0.938  -9.566  47.094  1.00  0.00     0.136 C 
ATOM     16  N   UNL     1       1.277  -8.220  47.568  1.00  0.00    -0.333 N 
ATOM     17  C   UNL     1       0.672  -7.036  47.134  1.00  0.00     0.289 C 
ATOM     18  O   UNL     1       0.862  -5.989  47.757  1.00  0.00    -0.265 OA
BRANCH  17  19
ATOM     19  C   UNL     1      -0.174  -7.047  45.948  1.00  0.00     0.191 A 
ATOM     20  C   UNL     1      -1.556  -7.012  45.852  1.00  0.00     0.056 A 
ATOM     21  O   UNL     1       0.358  -7.025  44.685  1.00  0.00    -0.459 OA
ATOM     22  C   UNL     1      -1.877  -6.996  44.475  1.00  0.00     0.043 A 
ATOM     23  C   UNL     1      -0.677  -7.003  43.806  1.00  0.00     0.196 A 
ENDBRANCH  17  19
ENDBRANCH   1  11
TORSDOF 3
ENDMDL
MODEL 3
REMARK VINA RESULT:    -8.467      4.351      6.168
REMARK INTER + INTRA:         -10.412
REMARK INTER:                 -10.067
REMARK INTRA:                  -0.345
REMARK UNBOUND:                -0.460
REMARK SMILES Cc1ccc(S(=O)(=O)N2CCN(C(=O)c3ccco3)CC2)cc1
REMARK SMILES IDX 6 1 7 2 8 3 5 4 2 5 3 6 23 7 4 8 22 9 1 10 9 11 10 12 21 13
REMARK SMILES IDX 11 14 20 15 12 16 13 17 14 18 15 19 16 20 19 21 17 22 18 23
REMARK H PARENT
ROOT
ATOM      1  S   UNL     1      -0.941  -7.662  46.435  1.00  0.00     0.243 S 
ATOM      2  O   UNL     1      -1.196  -8.086  45.074  1.00  0.00    -0.207 OA
ATOM      3  O   UNL     1      -2.018  -7.256  47.312  1.00  0.00    -0.207 OA
ENDROOT
BRANCH   1   4
ATOM      4  C   UNL     1       0.251  -6.349  46.413  1.00  0.00     0.082 A 
ATOM      5  C   UNL     1       2.128  -4.282  46.414  1.00  0.00    -0.051 A 
ATOM      6  C   UNL     1       1.249  -4.439  47.495  1.00  0.00     0.005 A 
ATOM      7  C   UNL     1       2.040  -5.157  45.323  1.00  0.00     0.005 A 
ATOM      8  C   UNL     1       0.311  -5.473  47.499  1.00  0.00     0.022 A 
ATOM      9  C   UNL     1       1.105  -6.194  45.319  1.00  0.00     0.022 A 
ATOM     10  C   UNL     1       3.109  -3.146  46.397  1.00  0.00     0.044 C 
ENDBRANCH   1   4
BRANCH   1  11
ATOM     11  N   UNL     1      -0.088  -8.931  47.196  1.00  0.00    -0.194 NA
ATOM     12  C   UNL     1       0.508  -8.598  48.533  1.00  0.00     0.124 C 
ATOM     13  C   UNL     1       0.862  -9.623  46.268  1.00  0.00     0.124 C 
ATOM     14  C   UNL     1       2.040  -8.594  48.515  1.00  0.00     0.136 C 
ATOM     15  C   UNL     1       1.815 -10.564  47.020  1.00  0.00     0.136 C 
ATOM     16  N   UNL     1       2.582  -9.877  48.064  1.00  0.00    -0.333 N 
ATOM     17  C   UNL     1       3.818 -10.296  48.565  1.00  0.00     0.289 C 
ATOM     18  O   UNL     1       4.485  -9.532  49.267  1.00  0.00    -0.265 OA
BRANCH  17  19
ATOM     19  C   UNL     1       4.308 -11.633  48.259  1.00  0.00     0.191 A 
ATOM     20  C   UNL     1       4.066 -12.831  48.911  1.00  0.00     0.056 A 
ATOM     21  O   UNL     1       5.082 -11.881  47.155  1.00  0.00    -0.459 OA
ATOM     22  C   UNL     1       4.740 -13.843  48.189  1.00  0.00     0.043 A 
ATOM     23  C   UNL     1       5.341 -13.213  47.127  1.00  0.00     0.196 A 
ENDBRANCH  17  19
ENDBRANCH   1  11
TORSDOF 3
ENDMDL
MODEL 4
REMARK VINA RESULT:    -8.435      3.815      6.193
REMARK INTER + INTRA:         -10.374
REMARK INTER:                 -10.024
REMARK INTRA:                  -0.351
REMARK UNBOUND:                -0.460
REMARK SMILES Cc1ccc(S(=O)(=O)N2CCN(C(=O)c3ccco3)CC2)cc1
REMARK SMILES IDX 6 1 7 2 8 3 5 4 2 5 3 6 23 7 4 8 22 9 1 10 9 11 10 12 21 13
REMARK SMILES IDX 11 14 20 15 12 16 13 17 14 18 15 19 16 20 19 21 17 22 18 23
REMARK H PARENT
ROOT
ATOM      1  S   UNL     1       4.941 -11.621  49.322  1.00  0.00     0.243 S 
ATOM      2  O   UNL     1       5.639 -10.691  50.185  1.00  0.00    -0.207 OA
ATOM      3  O   UNL     1       4.858 -13.030  49.643  1.00  0.00    -0.207 OA
ENDROOT
BRANCH   1   4
ATOM      4  C   UNL     1       5.601 -11.488  47.681  1.00  0.00     0.082 A 
ATOM      5  C   UNL     1       6.627 -11.311  45.090  1.00  0.00    -0.051 A 
ATOM      6  C   UNL     1       6.406 -12.565  45.679  1.00  0.00     0.005 A 
ATOM      7  C   UNL     1       6.351 -10.149  45.823  1.00  0.00     0.005 A 
ATOM      8  C   UNL     1       5.890 -12.657  46.973  1.00  0.00     0.022 A 
ATOM      9  C   UNL     1       5.835 -10.233  47.118  1.00  0.00     0.022 A 
ATOM     10  C   UNL     1       7.216 -11.217  43.713  1.00  0.00     0.044 C 
ENDBRANCH   1   4
BRANCH   1  11
ATOM     11  N   UNL     1       3.351 -11.025  49.136  1.00  0.00    -0.194 NA
ATOM     12  C   UNL     1       2.537 -11.681  48.059  1.00  0.00     0.124 C 
ATOM     13  C   UNL     1       3.297  -9.529  49.106  1.00  0.00     0.124 C 
ATOM     14  C   UNL     1       2.218 -10.734  46.898  1.00  0.00     0.136 C 
ATOM     15  C   UNL     1       1.921  -9.013  48.663  1.00  0.00     0.136 C 
ATOM     16  N   UNL     1       1.516  -9.532  47.353  1.00  0.00    -0.333 N 
ATOM     17  C   UNL     1       0.611  -8.914  46.484  1.00  0.00     0.289 C 
ATOM     18  O   UNL     1       0.517  -9.306  45.319  1.00  0.00    -0.265 OA
BRANCH  17  19
ATOM     19  C   UNL     1      -0.216  -7.814  46.962  1.00  0.00     0.191 A 
ATOM     20  C   UNL     1      -1.506  -7.837  47.467  1.00  0.00     0.056 A 
ATOM     21  O   UNL     1       0.261  -6.531  47.028  1.00  0.00    -0.459 OA
ATOM     22  C   UNL     1      -1.835  -6.510  47.830  1.00  0.00     0.043 A 
ATOM     23  C   UNL     1      -0.725  -5.754  47.545  1.00  0.00     0.196 A 
ENDBRANCH  17  19
ENDBRANCH   1  11
TORSDOF 3
ENDMDL
MODEL 5
REMARK VINA RESULT:    -8.414      1.666      2.470
REMARK INTER + INTRA:         -10.350
REMARK INTER:                 -10.243
REMARK INTRA:                  -0.107
REMARK UNBOUND:                -0.460
REMARK SMILES Cc1ccc(S(=O)(=O)N2CCN(C(=O)c3ccco3)CC2)cc1
REMARK SMILES IDX 6 1 7 2 8 3 5 4 2 5 3 6 23 7 4 8 22 9 1 10 9 11 10 12 21 13
REMARK SMILES IDX 11 14 20 15 12 16 13 17 14 18 15 19 16 20 19 21 17 22 18 23
REMARK H PARENT
ROOT
ATOM      1  S   UNL     1       4.480 -10.447  49.346  1.00  0.00     0.243 S 
ATOM      2  O   UNL     1       3.413  -9.522  49.672  1.00  0.00    -0.207 OA
ATOM      3  O   UNL     1       5.645 -10.582  50.192  1.00  0.00    -0.207 OA
ENDROOT
BRANCH   1   4
ATOM      4  C   UNL     1       5.052 -10.104  47.702  1.00  0.00     0.082 A 
ATOM      5  C   UNL     1       5.966  -9.599  45.113  1.00  0.00    -0.051 A 
ATOM      6  C   UNL     1       6.590 -10.573  45.905  1.00  0.00     0.005 A 
ATOM      7  C   UNL     1       4.897  -8.864  45.641  1.00  0.00     0.005 A 
ATOM      8  C   UNL     1       6.133 -10.830  47.199  1.00  0.00     0.022 A 
ATOM      9  C   UNL     1       4.434  -9.116  46.935  1.00  0.00     0.022 A 
ATOM     10  C   UNL     1       6.484  -9.299  43.736  1.00  0.00     0.044 C 
ENDBRANCH   1   4
BRANCH   1  11
ATOM     11  N   UNL     1       3.763 -11.989  49.179  1.00  0.00    -0.194 NA
ATOM     12  C   UNL     1       4.719 -13.123  48.953  1.00  0.00     0.124 C 
ATOM     13  C   UNL     1       2.599 -11.983  48.237  1.00  0.00     0.124 C 
ATOM     14  C   UNL     1       4.581 -13.745  47.559  1.00  0.00     0.136 C 
ATOM     15  C   UNL     1       2.142 -13.405  47.882  1.00  0.00     0.136 C 
ATOM     16  N   UNL     1       3.219 -14.218  47.307  1.00  0.00    -0.333 N 
ATOM     17  C   UNL     1       3.036 -15.320  46.464  1.00  0.00     0.289 C 
ATOM     18  O   UNL     1       3.999 -15.787  45.852  1.00  0.00    -0.265 OA
BRANCH  17  19
ATOM     19  C   UNL     1       1.712 -15.909  46.319  1.00  0.00     0.191 A 
ATOM     20  C   UNL     1       0.888 -15.960  45.207  1.00  0.00     0.056 A 
ATOM     21  O   UNL     1       1.113 -16.595  47.344  1.00  0.00    -0.459 OA
ATOM     22  C   UNL     1      -0.270 -16.683  45.578  1.00  0.00     0.043 A 
ATOM     23  C   UNL     1      -0.082 -17.049  46.888  1.00  0.00     0.196 A 
ENDBRANCH  17  19
ENDBRANCH   1  11
TORSDOF 3
ENDMDL
MODEL 6
REMARK VINA RESULT:    -8.179      2.623      7.543
REMARK INTER + INTRA:         -10.074
REMARK INTER:                  -9.981
REMARK INTRA:                  -0.093
REMARK UNBOUND:                -0.460
REMARK SMILES Cc1ccc(S(=O)(=O)N2CCN(C(=O)c3ccco3)CC2)cc1
REMARK SMILES IDX 6 1 7 2 8 3 5 4 2 5 3 6 23 7 4 8 22 9 1 10 9 11 10 12 21 13
REMARK SMILES IDX 11 14 20 15 12 16 13 17 14 18 15 19 16 20 19 21 17 22 18 23
REMARK H PARENT
ROOT
ATOM      1  S   UNL     1       4.303 -12.510  49.351  1.00  0.00     0.243 S 
ATOM      2  O   UNL     1       5.503 -12.677  48.558  1.00  0.00    -0.207 OA
ATOM      3  O   UNL     1       4.344 -12.549  50.797  1.00  0.00    -0.207 OA
ENDROOT
BRANCH   1   4
ATOM      4  C   UNL     1       3.096 -13.696  48.821  1.00  0.00     0.082 A 
ATOM      5  C   UNL     1       1.220 -15.578  47.962  1.00  0.00    -0.051 A 
ATOM      6  C   UNL     1       2.227 -15.135  47.092  1.00  0.00     0.005 A 
ATOM      7  C   UNL     1       1.149 -15.049  49.257  1.00  0.00     0.005 A 
ATOM      8  C   UNL     1       3.168 -14.198  47.519  1.00  0.00     0.022 A 
ATOM      9  C   UNL     1       2.087 -14.110  49.693  1.00  0.00     0.022 A 
ATOM     10  C   UNL     1       0.188 -16.558  47.486  1.00  0.00     0.044 C 
ENDBRANCH   1   4
BRANCH   1  11
ATOM     11  N   UNL     1       3.602 -11.025  48.880  1.00  0.00    -0.194 NA
ATOM     12  C   UNL     1       2.113 -11.046  48.690  1.00  0.00     0.124 C 
ATOM     13  C   UNL     1       4.344 -10.369  47.757  1.00  0.00     0.124 C 
ATOM     14  C   UNL     1       1.699 -10.836  47.230  1.00  0.00     0.136 C 
ATOM     15  C   UNL     1       3.559  -9.193  47.161  1.00  0.00     0.136 C 
ATOM     16  N   UNL     1       2.226  -9.582  46.689  1.00  0.00    -0.333 N 
ATOM     17  C   UNL     1       1.492  -8.915  45.703  1.00  0.00     0.289 C 
ATOM     18  O   UNL     1       0.494  -9.452  45.217  1.00  0.00    -0.265 OA
BRANCH  17  19
ATOM     19  C   UNL     1       1.909  -7.592  45.260  1.00  0.00     0.191 A 
ATOM     20  C   UNL     1       1.306  -6.362  45.470  1.00  0.00     0.056 A 
ATOM     21  O   UNL     1       3.083  -7.397  44.580  1.00  0.00    -0.459 OA
ATOM     22  C   UNL     1       2.133  -5.384  44.871  1.00  0.00     0.043 A 
ATOM     23  C   UNL     1       3.204  -6.065  44.345  1.00  0.00     0.196 A 
ENDBRANCH  17  19
ENDBRANCH   1  11
TORSDOF 3
ENDMDL
MODEL 7
REMARK VINA RESULT:    -7.937     14.271     15.564
REMARK INTER + INTRA:          -9.789
REMARK INTER:                  -9.488
REMARK INTRA:                  -0.301
REMARK UNBOUND:                -0.460
REMARK SMILES Cc1ccc(S(=O)(=O)N2CCN(C(=O)c3ccco3)CC2)cc1
REMARK SMILES IDX 6 1 7 2 8 3 5 4 2 5 3 6 23 7 4 8 22 9 1 10 9 11 10 12 21 13
REMARK SMILES IDX 11 14 20 15 12 16 13 17 14 18 15 19 16 20 19 21 17 22 18 23
REMARK H PARENT
ROOT
ATOM      1  S   UNL     1      -7.821  -9.727  40.400  1.00  0.00     0.243 S 
ATOM      2  O   UNL     1      -8.116  -8.376  40.833  1.00  0.00    -0.207 OA
ATOM      3  O   UNL     1      -7.665 -10.806  41.351  1.00  0.00    -0.207 OA
ENDROOT
BRANCH   1   4
ATOM      4  C   UNL     1      -6.368  -9.699  39.384  1.00  0.00     0.082 A 
ATOM      5  C   UNL     1      -4.076  -9.620  37.791  1.00  0.00    -0.051 A 
ATOM      6  C   UNL     1      -4.847  -8.464  37.979  1.00  0.00     0.005 A 
ATOM      7  C   UNL     1      -4.480 -10.820  38.390  1.00  0.00     0.005 A 
ATOM      8  C   UNL     1      -5.991  -8.499  38.777  1.00  0.00     0.022 A 
ATOM      9  C   UNL     1      -5.624 -10.864  39.190  1.00  0.00     0.022 A 
ATOM     10  C   UNL     1      -2.867  -9.586  36.902  1.00  0.00     0.044 C 
ENDBRANCH   1   4
BRANCH   1  11
ATOM     11  N   UNL     1      -9.045 -10.169  39.293  1.00  0.00    -0.194 NA
ATOM     12  C   UNL     1     -10.440  -9.773  39.680  1.00  0.00     0.124 C 
ATOM     13  C   UNL     1      -8.925 -11.592  38.840  1.00  0.00     0.124 C 
ATOM     14  C   UNL     1     -11.334 -10.979  39.986  1.00  0.00     0.136 C 
ATOM     15  C   UNL     1     -10.172 -12.057  38.075  1.00  0.00     0.136 C 
ATOM     16  N   UNL     1     -11.404 -11.905  38.855  1.00  0.00    -0.333 N 
ATOM     17  C   UNL     1     -12.575 -12.647  38.666  1.00  0.00     0.289 C 
ATOM     18  O   UNL     1     -13.467 -12.608  39.517  1.00  0.00    -0.265 OA
BRANCH  17  19
ATOM     19  C   UNL     1     -12.735 -13.457  37.466  1.00  0.00     0.191 A 
ATOM     20  C   UNL     1     -12.847 -14.832  37.339  1.00  0.00     0.056 A 
ATOM     21  O   UNL     1     -12.866 -12.887  36.225  1.00  0.00    -0.459 OA
ATOM     22  C   UNL     1     -13.028 -15.110  35.964  1.00  0.00     0.043 A 
ATOM     23  C   UNL     1     -13.034 -13.893  35.329  1.00  0.00     0.196 A 
ENDBRANCH  17  19
ENDBRANCH   1  11
TORSDOF 3
ENDMDL
MODEL 8
REMARK VINA RESULT:    -7.837      3.244      4.725
REMARK INTER + INTRA:          -9.671
REMARK INTER:                  -9.841
REMARK INTRA:                   0.170
REMARK UNBOUND:                -0.460
REMARK SMILES Cc1ccc(S(=O)(=O)N2CCN(C(=O)c3ccco3)CC2)cc1
REMARK SMILES IDX 6 1 7 2 8 3 5 4 2 5 3 6 23 7 4 8 22 9 1 10 9 11 10 12 21 13
REMARK SMILES IDX 11 14 20 15 12 16 13 17 14 18 15 19 16 20 19 21 17 22 18 23
REMARK H PARENT
ROOT
ATOM      1  S   UNL     1       0.681  -6.650  46.837  1.00  0.00     0.243 S 
ATOM      2  O   UNL     1      -0.450  -6.593  45.934  1.00  0.00    -0.207 OA
ATOM      3  O   UNL     1       1.030  -5.527  47.679  1.00  0.00    -0.207 OA
ENDROOT
BRANCH   1   4
ATOM      4  C   UNL     1       2.129  -7.093  45.914  1.00  0.00     0.082 A 
ATOM      5  C   UNL     1       4.402  -7.765  44.437  1.00  0.00    -0.051 A 
ATOM      6  C   UNL     1       3.294  -7.184  43.804  1.00  0.00     0.005 A 
ATOM      7  C   UNL     1       4.349  -8.027  45.812  1.00  0.00     0.005 A 
ATOM      8  C   UNL     1       2.157  -6.844  44.540  1.00  0.00     0.022 A 
ATOM      9  C   UNL     1       3.216  -7.690  46.556  1.00  0.00     0.022 A 
ATOM     10  C   UNL     1       5.607  -8.163  43.636  1.00  0.00     0.044 C 
ENDBRANCH   1   4
BRANCH   1  11
ATOM     11  N   UNL     1       0.444  -8.012  47.840  1.00  0.00    -0.194 NA
ATOM     12  C   UNL     1       1.075  -7.930  49.200  1.00  0.00     0.124 C 
ATOM     13  C   UNL     1       0.708  -9.304  47.129  1.00  0.00     0.124 C 
ATOM     14  C   UNL     1       2.214  -8.938  49.386  1.00  0.00     0.136 C 
ATOM     15  C   UNL     1       0.765 -10.491  48.100  1.00  0.00     0.136 C 
ATOM     16  N   UNL     1       1.767 -10.313  49.155  1.00  0.00    -0.333 N 
ATOM     17  C   UNL     1       2.390 -11.348  49.860  1.00  0.00     0.289 C 
ATOM     18  O   UNL     1       3.379 -11.105  50.556  1.00  0.00    -0.265 OA
BRANCH  17  19
ATOM     19  C   UNL     1       1.865 -12.704  49.771  1.00  0.00     0.191 A 
ATOM     20  C   UNL     1       2.260 -13.749  48.952  1.00  0.00     0.056 A 
ATOM     21  O   UNL     1       0.876 -13.149  50.609  1.00  0.00    -0.459 OA
ATOM     22  C   UNL     1       1.461 -14.867  49.288  1.00  0.00     0.043 A 
ATOM     23  C   UNL     1       0.636 -14.450  50.304  1.00  0.00     0.196 A 
ENDBRANCH  17  19
ENDBRANCH   1  11
TORSDOF 3
ENDMDL
MODEL 9
REMARK VINA RESULT:    -7.795     14.824     16.207
REMARK INTER + INTRA:          -9.622
REMARK INTER:                  -9.239
REMARK INTRA:                  -0.383
REMARK UNBOUND:                -0.460
REMARK SMILES Cc1ccc(S(=O)(=O)N2CCN(C(=O)c3ccco3)CC2)cc1
REMARK SMILES IDX 6 1 7 2 8 3 5 4 2 5 3 6 23 7 4 8 22 9 1 10 9 11 10 12 21 13
REMARK SMILES IDX 11 14 20 15 12 16 13 17 14 18 15 19 16 20 19 21 17 22 18 23
REMARK H PARENT
ROOT
ATOM      1  S   UNL     1      -7.476 -11.059  40.577  1.00  0.00     0.243 S 
ATOM      2  O   UNL     1      -7.876  -9.934  41.397  1.00  0.00    -0.207 OA
ATOM      3  O   UNL     1      -7.084 -12.320  41.168  1.00  0.00    -0.207 OA
ENDROOT
BRANCH   1   4
ATOM      4  C   UNL     1      -6.164 -10.546  39.500  1.00  0.00     0.082 A 
ATOM      5  C   UNL     1      -4.094  -9.772  37.793  1.00  0.00    -0.051 A 
ATOM      6  C   UNL     1      -4.167 -11.091  38.262  1.00  0.00     0.005 A 
ATOM      7  C   UNL     1      -5.055  -8.840  38.208  1.00  0.00     0.005 A 
ATOM      8  C   UNL     1      -5.202 -11.482  39.113  1.00  0.00     0.022 A 
ATOM      9  C   UNL     1      -6.094  -9.223  39.059  1.00  0.00     0.022 A 
ATOM     10  C   UNL     1      -2.959  -9.346  36.908  1.00  0.00     0.044 C 
ENDBRANCH   1   4
BRANCH   1  11
ATOM     11  N   UNL     1      -8.758 -11.359  39.489  1.00  0.00    -0.194 NA
ATOM     12  C   UNL     1      -8.360 -11.957  38.171  1.00  0.00     0.124 C 
ATOM     13  C   UNL     1      -9.693 -10.195  39.365  1.00  0.00     0.124 C 
ATOM     14  C   UNL     1      -8.590 -11.004  36.994  1.00  0.00     0.136 C 
ATOM     15  C   UNL     1     -10.668 -10.365  38.193  1.00  0.00     0.136 C 
ATOM     16  N   UNL     1      -9.985 -10.567  36.912  1.00  0.00    -0.333 N 
ATOM     17  C   UNL     1     -10.523 -10.273  35.654  1.00  0.00     0.289 C 
ATOM     18  O   UNL     1      -9.788 -10.259  34.663  1.00  0.00    -0.265 OA
BRANCH  17  19
ATOM     19  C   UNL     1     -11.945  -9.989  35.523  1.00  0.00     0.191 A 
ATOM     20  C   UNL     1     -13.014 -10.866  35.435  1.00  0.00     0.056 A 
ATOM     21  O   UNL     1     -12.427  -8.706  35.539  1.00  0.00    -0.459 OA
ATOM     22  C   UNL     1     -14.190 -10.085  35.367  1.00  0.00     0.043 A 
ATOM     23  C   UNL     1     -13.779  -8.776  35.437  1.00  0.00     0.196 A 
ENDBRANCH  17  19
ENDBRANCH   1  11
TORSDOF 3
ENDMDL
MODEL 10
REMARK VINA RESULT:    -7.660      4.723      6.871
REMARK INTER + INTRA:          -9.464
REMARK INTER:                  -9.102
REMARK INTRA:                  -0.362
REMARK UNBOUND:                -0.460
REMARK SMILES Cc1ccc(S(=O)(=O)N2CCN(C(=O)c3ccco3)CC2)cc1
REMARK SMILES IDX 6 1 7 2 8 3 5 4 2 5 3 6 23 7 4 8 22 9 1 10 9 11 10 12 21 13
REMARK SMILES IDX 11 14 20 15 12 16 13 17 14 18 15 19 16 20 19 21 17 22 18 23
REMARK H PARENT
ROOT
ATOM      1  S   UNL     1       0.999  -6.701  44.386  1.00  0.00     0.243 S 
ATOM      2  O   UNL     1       2.066  -5.829  43.940  1.00  0.00    -0.207 OA
ATOM      3  O   UNL     1      -0.125  -7.014  43.531  1.00  0.00    -0.207 OA
ENDROOT
BRANCH   1   4
ATOM      4  C   UNL     1       0.348  -6.075  45.913  1.00  0.00     0.082 A 
ATOM      5  C   UNL     1      -0.653  -5.060  48.314  1.00  0.00    -0.051 A 
ATOM      6  C   UNL     1       0.660  -4.769  47.916  1.00  0.00     0.005 A 
ATOM      7  C   UNL     1      -1.449  -5.885  47.507  1.00  0.00     0.005 A 
ATOM      8  C   UNL     1       1.162  -5.272  46.715  1.00  0.00     0.022 A 
ATOM      9  C   UNL     1      -0.954  -6.392  46.304  1.00  0.00     0.022 A 
ATOM     10  C   UNL     1      -1.177  -4.549  49.624  1.00  0.00     0.044 C 
ENDBRANCH   1   4
BRANCH   1  11
ATOM     11  N   UNL     1       1.728  -8.170  44.864  1.00  0.00    -0.194 NA
ATOM     12  C   UNL     1       0.779  -9.268  45.246  1.00  0.00     0.124 C 
ATOM     13  C   UNL     1       2.842  -7.968  45.844  1.00  0.00     0.124 C 
ATOM     14  C   UNL     1       0.853  -9.624  46.734  1.00  0.00     0.136 C 
ATOM     15  C   UNL     1       3.300  -9.291  46.473  1.00  0.00     0.136 C 
ATOM     16  N   UNL     1       2.207 -10.012  47.133  1.00  0.00    -0.333 N 
ATOM     17  C   UNL     1       2.362 -10.939  48.169  1.00  0.00     0.289 C 
ATOM     18  O   UNL     1       1.375 -11.311  48.809  1.00  0.00    -0.265 OA
BRANCH  17  19
ATOM     19  C   UNL     1       3.685 -11.461  48.483  1.00  0.00     0.191 A 
ATOM     20  C   UNL     1       4.389 -12.494  47.885  1.00  0.00     0.056 A 
ATOM     21  O   UNL     1       4.473 -10.893  49.450  1.00  0.00    -0.459 OA
ATOM     22  C   UNL     1       5.644 -12.573  48.532  1.00  0.00     0.043 A 
ATOM     23  C   UNL     1       5.646 -11.575  49.475  1.00  0.00     0.196 A 
ENDBRANCH  17  19
ENDBRANCH   1  11
TORSDOF 3
ENDMDL
