MODEL 1
REMARK VINA RESULT:   -10.285      0.000      0.000
REMARK INTER + INTRA:         -11.977
REMARK INTER:                 -12.089
REMARK INTRA:                   0.112
REMARK UNBOUND:                 0.112
REMARK SMILES Cc1cc2c(cc1S(=O)(=O)Nc1ccc(F)cc1)n(C)c(=O)c(=O)n2C
REMARK SMILES IDX 8 1 9 2 10 3 7 4 2 5 3 6 4 7 6 8 5 9 25 10 19 11 23 12 21 13
REMARK SMILES IDX 24 14 22 15 1 16 26 17 20 18 11 19 12 21 13 22 18 23 14 24
REMARK SMILES IDX 17 25 15 26 16 27
REMARK H PARENT 11 20
ROOT
ATOM      1  S   UNL     1       2.772 -11.837  49.195  1.00  0.00     0.262 S 
ATOM      2  O   UNL     1       3.514 -11.586  50.408  1.00  0.00    -0.201 OA
ATOM      3  O   UNL     1       1.334 -12.007  49.240  1.00  0.00    -0.201 OA
ENDROOT
BRANCH   1   4
ATOM      4  C   UNL     1       3.109 -10.578  47.972  1.00  0.00     0.092 A 
ATOM      5  C   UNL     1       4.396 -10.241  47.540  1.00  0.00    -0.028 A 
ATOM      6  C   UNL     1       4.519  -9.216  46.581  1.00  0.00     0.033 A 
ATOM      7  C   UNL     1       3.404  -8.533  46.050  1.00  0.00     0.068 A 
ATOM      8  C   UNL     1       1.990  -9.897  47.458  1.00  0.00     0.051 A 
ATOM      9  C   UNL     1       2.122  -8.879  46.499  1.00  0.00     0.069 A 
ATOM     10  N   UNL     1       3.573  -7.510  45.078  1.00  0.00    -0.305 N 
ATOM     11  N   UNL     1       0.977  -8.208  45.989  1.00  0.00    -0.305 N 
ATOM     12  C   UNL     1       2.486  -6.824  44.539  1.00  0.00     0.316 A 
ATOM     13  C   UNL     1       1.084  -7.200  45.032  1.00  0.00     0.316 A 
ATOM     14  O   UNL     1       2.593  -5.940  43.691  1.00  0.00    -0.263 OA
ATOM     15  O   UNL     1       0.117  -6.601  44.564  1.00  0.00    -0.263 OA
ATOM     16  C   UNL     1       5.654 -10.892  48.044  1.00  0.00     0.046 C 
ATOM     17  C   UNL     1       4.902  -7.144  44.610  1.00  0.00     0.154 C 
ATOM     18  C   UNL     1      -0.355  -8.552  46.463  1.00  0.00     0.154 C 
ENDBRANCH   1   4
BRANCH   1  19
ATOM     19  N   UNL     1       3.371 -13.234  48.447  1.00  0.00    -0.280 N 
ATOM     20  H   UNL     1       3.966 -12.985  47.656  1.00  0.00     0.180 HD
BRANCH  19  21
ATOM     21  C   UNL     1       2.482 -14.328  48.270  1.00  0.00     0.049 A 
ATOM     22  C   UNL     1       1.799 -14.863  49.363  1.00  0.00     0.030 A 
ATOM     23  C   UNL     1       2.330 -14.882  46.998  1.00  0.00     0.030 A 
ATOM     24  C   UNL     1       0.954 -15.959  49.179  1.00  0.00     0.041 A 
ATOM     25  C   UNL     1       1.482 -15.975  46.817  1.00  0.00     0.041 A 
ATOM     26  C   UNL     1       0.803 -16.504  47.909  1.00  0.00     0.123 A 
ATOM     27  F   UNL     1      -0.008 -17.555  47.735  1.00  0.00    -0.207 F 
ENDBRANCH  19  21
ENDBRANCH   1  19
TORSDOF 3
ENDMDL
MODEL 2
REMARK VINA RESULT:   -10.237      4.092      5.601
REMARK INTER + INTRA:         -11.920
REMARK INTER:                 -12.848
REMARK INTRA:                   0.928
REMARK UNBOUND:                 0.112
REMARK SMILES Cc1cc2c(cc1S(=O)(=O)Nc1ccc(F)cc1)n(C)c(=O)c(=O)n2C
REMARK SMILES IDX 8 1 9 2 10 3 7 4 2 5 3 6 4 7 6 8 5 9 25 10 19 11 23 12 21 13
REMARK SMILES IDX 24 14 22 15 1 16 26 17 20 18 11 19 12 21 13 22 18 23 14 24
REMARK SMILES IDX 17 25 15 26 16 27
REMARK H PARENT 11 20
ROOT
ATOM      1  S   UNL     1       1.107 -16.565  48.480  1.00  0.00     0.262 S 
ATOM      2  O   UNL     1       1.536 -17.504  49.490  1.00  0.00    -0.201 OA
ATOM      3  O   UNL     1      -0.299 -16.429  48.159  1.00  0.00    -0.201 OA
ENDROOT
BRANCH   1   4
ATOM      4  C   UNL     1       1.719 -14.924  48.838  1.00  0.00     0.092 A 
ATOM      5  C   UNL     1       1.102 -14.045  49.736  1.00  0.00    -0.028 A 
ATOM      6  C   UNL     1       1.681 -12.773  49.912  1.00  0.00     0.033 A 
ATOM      7  C   UNL     1       2.845 -12.366  49.226  1.00  0.00     0.068 A 
ATOM      8  C   UNL     1       2.873 -14.525  48.140  1.00  0.00     0.051 A 
ATOM      9  C   UNL     1       3.447 -13.256  48.325  1.00  0.00     0.069 A 
ATOM     10  N   UNL     1       3.402 -11.076  49.439  1.00  0.00    -0.305 N 
ATOM     11  N   UNL     1       4.617 -12.876  47.614  1.00  0.00    -0.305 N 
ATOM     12  C   UNL     1       4.551 -10.653  48.774  1.00  0.00     0.316 A 
ATOM     13  C   UNL     1       5.207 -11.625  47.787  1.00  0.00     0.316 A 
ATOM     14  O   UNL     1       5.065  -9.549  48.939  1.00  0.00    -0.263 OA
ATOM     15  O   UNL     1       6.222 -11.264  47.193  1.00  0.00    -0.263 OA
ATOM     16  C   UNL     1      -0.146 -14.367  50.511  1.00  0.00     0.046 C 
ATOM     17  C   UNL     1       2.780 -10.145  50.370  1.00  0.00     0.154 C 
ATOM     18  C   UNL     1       5.237 -13.791  46.666  1.00  0.00     0.154 C 
ENDBRANCH   1   4
BRANCH   1  19
ATOM     19  N   UNL     1       1.876 -16.923  47.015  1.00  0.00    -0.280 N 
ATOM     20  H   UNL     1       2.817 -16.527  47.002  1.00  0.00     0.180 HD
BRANCH  19  21
ATOM     21  C   UNL     1       1.113 -16.822  45.821  1.00  0.00     0.049 A 
ATOM     22  C   UNL     1      -0.270 -16.646  45.882  1.00  0.00     0.030 A 
ATOM     23  C   UNL     1       1.760 -16.938  44.588  1.00  0.00     0.030 A 
ATOM     24  C   UNL     1      -1.010 -16.580  44.700  1.00  0.00     0.041 A 
ATOM     25  C   UNL     1       1.017 -16.870  43.409  1.00  0.00     0.041 A 
ATOM     26  C   UNL     1      -0.360 -16.692  43.476  1.00  0.00     0.123 A 
ATOM     27  F   UNL     1      -1.073 -16.630  42.344  1.00  0.00    -0.207 F 
ENDBRANCH  19  21
ENDBRANCH   1  19
TORSDOF 3
ENDMDL
MODEL 3
REMARK VINA RESULT:   -10.184      1.580      2.302
REMARK INTER + INTRA:         -11.857
REMARK INTER:                 -11.731
REMARK INTRA:                  -0.127
REMARK UNBOUND:                 0.112
REMARK SMILES Cc1cc2c(cc1S(=O)(=O)Nc1ccc(F)cc1)n(C)c(=O)c(=O)n2C
REMARK SMILES IDX 8 1 9 2 10 3 7 4 2 5 3 6 4 7 6 8 5 9 25 10 19 11 23 12 21 13
REMARK SMILES IDX 24 14 22 15 1 16 26 17 20 18 11 19 12 21 13 22 18 23 14 24
REMARK SMILES IDX 17 25 15 26 16 27
REMARK H PARENT 11 20
ROOT
ATOM      1  S   UNL     1       3.029 -11.265  50.116  1.00  0.00     0.262 S 
ATOM      2  O   UNL     1       3.781 -12.304  50.781  1.00  0.00    -0.201 OA
ATOM      3  O   UNL     1       2.629 -10.076  50.839  1.00  0.00    -0.201 OA
ENDROOT
BRANCH   1   4
ATOM      4  C   UNL     1       3.875 -10.714  48.640  1.00  0.00     0.092 A 
ATOM      5  C   UNL     1       5.093 -11.243  48.202  1.00  0.00    -0.028 A 
ATOM      6  C   UNL     1       5.659 -10.705  47.029  1.00  0.00     0.033 A 
ATOM      7  C   UNL     1       5.043  -9.669  46.294  1.00  0.00     0.068 A 
ATOM      8  C   UNL     1       3.256  -9.674  47.922  1.00  0.00     0.051 A 
ATOM      9  C   UNL     1       3.825  -9.146  46.750  1.00  0.00     0.069 A 
ATOM     10  N   UNL     1       5.644  -9.160  45.111  1.00  0.00    -0.305 N 
ATOM     11  N   UNL     1       3.180  -8.099  46.037  1.00  0.00    -0.305 N 
ATOM     12  C   UNL     1       5.052  -8.139  44.368  1.00  0.00     0.316 A 
ATOM     13  C   UNL     1       3.723  -7.565  44.870  1.00  0.00     0.316 A 
ATOM     14  O   UNL     1       5.538  -7.680  43.337  1.00  0.00    -0.263 OA
ATOM     15  O   UNL     1       3.191  -6.664  44.224  1.00  0.00    -0.263 OA
ATOM     16  C   UNL     1       5.843 -12.337  48.910  1.00  0.00     0.046 C 
ATOM     17  C   UNL     1       6.910  -9.696  44.633  1.00  0.00     0.154 C 
ATOM     18  C   UNL     1       1.924  -7.542  46.516  1.00  0.00     0.154 C 
ENDBRANCH   1   4
BRANCH   1  19
ATOM     19  N   UNL     1       1.598 -11.918  49.488  1.00  0.00    -0.280 N 
ATOM     20  H   UNL     1       0.788 -11.441  49.884  1.00  0.00     0.180 HD
BRANCH  19  21
ATOM     21  C   UNL     1       1.516 -13.330  49.349  1.00  0.00     0.049 A 
ATOM     22  C   UNL     1       2.209 -13.978  48.325  1.00  0.00     0.030 A 
ATOM     23  C   UNL     1       0.706 -14.054  50.226  1.00  0.00     0.030 A 
ATOM     24  C   UNL     1       2.093 -15.361  48.181  1.00  0.00     0.041 A 
ATOM     25  C   UNL     1       0.593 -15.437  50.080  1.00  0.00     0.041 A 
ATOM     26  C   UNL     1       1.287 -16.077  49.059  1.00  0.00     0.123 A 
ATOM     27  F   UNL     1       1.177 -17.404  48.919  1.00  0.00    -0.207 F 
ENDBRANCH  19  21
ENDBRANCH   1  19
TORSDOF 3
ENDMDL
MODEL 4
REMARK VINA RESULT:   -10.071      3.650      6.904
REMARK INTER + INTRA:         -11.724
REMARK INTER:                 -11.776
REMARK INTRA:                   0.052
REMARK UNBOUND:                 0.112
REMARK SMILES Cc1cc2c(cc1S(=O)(=O)Nc1ccc(F)cc1)n(C)c(=O)c(=O)n2C
REMARK SMILES IDX 8 1 9 2 10 3 7 4 2 5 3 6 4 7 6 8 5 9 25 10 19 11 23 12 21 13
REMARK SMILES IDX 24 14 22 15 1 16 26 17 20 18 11 19 12 21 13 22 18 23 14 24
REMARK SMILES IDX 17 25 15 26 16 27
REMARK H PARENT 11 20
ROOT
ATOM      1  S   UNL     1       3.896  -6.866  45.081  1.00  0.00     0.262 S 
ATOM      2  O   UNL     1       4.970  -5.902  45.148  1.00  0.00    -0.201 OA
ATOM      3  O   UNL     1       3.415  -7.334  43.797  1.00  0.00    -0.201 OA
ENDROOT
BRANCH   1   4
ATOM      4  C   UNL     1       4.283  -8.316  46.051  1.00  0.00     0.092 A 
ATOM      5  C   UNL     1       5.292  -9.226  45.718  1.00  0.00    -0.028 A 
ATOM      6  C   UNL     1       5.480 -10.337  46.563  1.00  0.00     0.033 A 
ATOM      7  C   UNL     1       4.696 -10.556  47.716  1.00  0.00     0.068 A 
ATOM      8  C   UNL     1       3.488  -8.529  47.192  1.00  0.00     0.051 A 
ATOM      9  C   UNL     1       3.684  -9.638  48.033  1.00  0.00     0.069 A 
ATOM     10  N   UNL     1       4.924 -11.687  48.547  1.00  0.00    -0.305 N 
ATOM     11  N   UNL     1       2.874  -9.831  49.184  1.00  0.00    -0.305 N 
ATOM     12  C   UNL     1       4.164 -11.922  49.692  1.00  0.00     0.316 A 
ATOM     13  C   UNL     1       3.055 -10.920  50.035  1.00  0.00     0.316 A 
ATOM     14  O   UNL     1       4.337 -12.883  50.437  1.00  0.00    -0.263 OA
ATOM     15  O   UNL     1       2.377 -11.117  51.042  1.00  0.00    -0.263 OA
ATOM     16  C   UNL     1       6.177  -9.100  44.510  1.00  0.00     0.046 C 
ATOM     17  C   UNL     1       5.970 -12.646  48.223  1.00  0.00     0.154 C 
ATOM     18  C   UNL     1       1.811  -8.890  49.507  1.00  0.00     0.154 C 
ENDBRANCH   1   4
BRANCH   1  19
ATOM     19  N   UNL     1       2.536  -6.250  45.880  1.00  0.00    -0.280 N 
ATOM     20  H   UNL     1       2.698  -6.225  46.887  1.00  0.00     0.180 HD
BRANCH  19  21
ATOM     21  C   UNL     1       1.255  -6.678  45.439  1.00  0.00     0.049 A 
ATOM     22  C   UNL     1       0.486  -7.531  46.232  1.00  0.00     0.030 A 
ATOM     23  C   UNL     1       0.792  -6.262  44.189  1.00  0.00     0.030 A 
ATOM     24  C   UNL     1      -0.756  -7.968  45.771  1.00  0.00     0.041 A 
ATOM     25  C   UNL     1      -0.452  -6.699  43.732  1.00  0.00     0.041 A 
ATOM     26  C   UNL     1      -1.214  -7.548  44.527  1.00  0.00     0.123 A 
ATOM     27  F   UNL     1      -2.406  -7.969  44.087  1.00  0.00    -0.207 F 
ENDBRANCH  19  21
ENDBRANCH   1  19
TORSDOF 3
ENDMDL
MODEL 5
REMARK VINA RESULT:    -9.605      3.694      6.876
REMARK INTER + INTRA:         -11.177
REMARK INTER:                 -10.920
REMARK INTRA:                  -0.257
REMARK UNBOUND:                 0.112
REMARK SMILES Cc1cc2c(cc1S(=O)(=O)Nc1ccc(F)cc1)n(C)c(=O)c(=O)n2C
REMARK SMILES IDX 8 1 9 2 10 3 7 4 2 5 3 6 4 7 6 8 5 9 25 10 19 11 23 12 21 13
REMARK SMILES IDX 24 14 22 15 1 16 26 17 20 18 11 19 12 21 13 22 18 23 14 24
REMARK SMILES IDX 17 25 15 26 16 27
REMARK H PARENT 11 20
ROOT
ATOM      1  S   UNL     1       5.224 -11.112  48.929  1.00  0.00     0.262 S 
ATOM      2  O   UNL     1       4.982 -10.778  50.313  1.00  0.00    -0.201 OA
ATOM      3  O   UNL     1       6.575 -11.346  48.459  1.00  0.00    -0.201 OA
ENDROOT
BRANCH   1   4
ATOM      4  C   UNL     1       4.250 -12.527  48.436  1.00  0.00     0.092 A 
ATOM      5  C   UNL     1       4.530 -13.307  47.309  1.00  0.00    -0.028 A 
ATOM      6  C   UNL     1       3.670 -14.386  47.026  1.00  0.00     0.033 A 
ATOM      7  C   UNL     1       2.555 -14.700  47.833  1.00  0.00     0.068 A 
ATOM      8  C   UNL     1       3.135 -12.824  49.241  1.00  0.00     0.051 A 
ATOM      9  C   UNL     1       2.285 -13.905  48.955  1.00  0.00     0.069 A 
ATOM     10  N   UNL     1       1.717 -15.804  47.517  1.00  0.00    -0.305 N 
ATOM     11  N   UNL     1       1.167 -14.191  49.786  1.00  0.00    -0.305 N 
ATOM     12  C   UNL     1       0.612 -16.134  48.300  1.00  0.00     0.316 A 
ATOM     13  C   UNL     1       0.314 -15.262  49.525  1.00  0.00     0.316 A 
ATOM     14  O   UNL     1      -0.131 -17.084  48.062  1.00  0.00    -0.263 OA
ATOM     15  O   UNL     1      -0.658 -15.542  50.223  1.00  0.00    -0.263 OA
ATOM     16  C   UNL     1       5.681 -13.057  46.374  1.00  0.00     0.046 C 
ATOM     17  C   UNL     1       1.989 -16.632  46.351  1.00  0.00     0.154 C 
ATOM     18  C   UNL     1       0.873 -13.358  50.942  1.00  0.00     0.154 C 
ENDBRANCH   1   4
BRANCH   1  19
ATOM     19  N   UNL     1       4.605  -9.886  47.937  1.00  0.00    -0.280 N 
ATOM     20  H   UNL     1       5.189  -9.051  48.000  1.00  0.00     0.180 HD
BRANCH  19  21
ATOM     21  C   UNL     1       3.198  -9.693  47.917  1.00  0.00     0.049 A 
ATOM     22  C   UNL     1       2.444 -10.128  46.825  1.00  0.00     0.030 A 
ATOM     23  C   UNL     1       2.586  -9.033  48.984  1.00  0.00     0.030 A 
ATOM     24  C   UNL     1       1.067  -9.903  46.805  1.00  0.00     0.041 A 
ATOM     25  C   UNL     1       1.209  -8.811  48.962  1.00  0.00     0.041 A 
ATOM     26  C   UNL     1       0.462  -9.248  47.873  1.00  0.00     0.123 A 
ATOM     27  F   UNL     1      -0.859  -9.032  47.851  1.00  0.00    -0.207 F 
ENDBRANCH  19  21
ENDBRANCH   1  19
TORSDOF 3
ENDMDL
MODEL 6
REMARK VINA RESULT:    -9.550      3.159      4.675
REMARK INTER + INTRA:         -11.112
REMARK INTER:                 -11.780
REMARK INTRA:                   0.668
REMARK UNBOUND:                 0.112
REMARK SMILES Cc1cc2c(cc1S(=O)(=O)Nc1ccc(F)cc1)n(C)c(=O)c(=O)n2C
REMARK SMILES IDX 8 1 9 2 10 3 7 4 2 5 3 6 4 7 6 8 5 9 25 10 19 11 23 12 21 13
REMARK SMILES IDX 24 14 22 15 1 16 26 17 20 18 11 19 12 21 13 22 18 23 14 24
REMARK SMILES IDX 17 25 15 26 16 27
REMARK H PARENT 11 20
ROOT
ATOM      1  S   UNL     1       4.417 -10.190  48.833  1.00  0.00     0.262 S 
ATOM      2  O   UNL     1       5.549  -9.294  48.867  1.00  0.00    -0.201 OA
ATOM      3  O   UNL     1       3.697 -10.504  50.051  1.00  0.00    -0.201 OA
ENDROOT
BRANCH   1   4
ATOM      4  C   UNL     1       3.204  -9.639  47.641  1.00  0.00     0.092 A 
ATOM      5  C   UNL     1       1.965 -10.261  47.450  1.00  0.00    -0.028 A 
ATOM      6  C   UNL     1       1.110  -9.731  46.464  1.00  0.00     0.033 A 
ATOM      7  C   UNL     1       1.457  -8.613  45.678  1.00  0.00     0.068 A 
ATOM      8  C   UNL     1       3.566  -8.529  46.856  1.00  0.00     0.051 A 
ATOM      9  C   UNL     1       2.705  -8.005  45.877  1.00  0.00     0.069 A 
ATOM     10  N   UNL     1       0.561  -8.105  44.698  1.00  0.00    -0.305 N 
ATOM     11  N   UNL     1       3.088  -6.879  45.098  1.00  0.00    -0.305 N 
ATOM     12  C   UNL     1       0.882  -7.000  43.912  1.00  0.00     0.316 A 
ATOM     13  C   UNL     1       2.248  -6.339  44.127  1.00  0.00     0.316 A 
ATOM     14  O   UNL     1       0.129  -6.530  43.061  1.00  0.00    -0.263 OA
ATOM     15  O   UNL     1       2.543  -5.363  43.439  1.00  0.00    -0.263 OA
ATOM     16  C   UNL     1       1.497 -11.464  48.221  1.00  0.00     0.046 C 
ATOM     17  C   UNL     1      -0.735  -8.733  44.483  1.00  0.00     0.154 C 
ATOM     18  C   UNL     1       4.390  -6.256  45.290  1.00  0.00     0.154 C 
ENDBRANCH   1   4
BRANCH   1  19
ATOM     19  N   UNL     1       4.898 -11.683  48.193  1.00  0.00    -0.280 N 
ATOM     20  H   UNL     1       5.198 -12.309  48.941  1.00  0.00     0.180 HD
BRANCH  19  21
ATOM     21  C   UNL     1       5.673 -11.678  47.002  1.00  0.00     0.049 A 
ATOM     22  C   UNL     1       6.051 -10.470  46.414  1.00  0.00     0.030 A 
ATOM     23  C   UNL     1       6.019 -12.894  46.411  1.00  0.00     0.030 A 
ATOM     24  C   UNL     1       6.784 -10.481  45.226  1.00  0.00     0.041 A 
ATOM     25  C   UNL     1       6.754 -12.902  45.225  1.00  0.00     0.041 A 
ATOM     26  C   UNL     1       7.129 -11.696  44.644  1.00  0.00     0.123 A 
ATOM     27  F   UNL     1       7.833 -11.704  43.504  1.00  0.00    -0.207 F 
ENDBRANCH  19  21
ENDBRANCH   1  19
TORSDOF 3
ENDMDL
MODEL 7
REMARK VINA RESULT:    -9.519      4.362      5.610
REMARK INTER + INTRA:         -11.076
REMARK INTER:                 -11.869
REMARK INTRA:                   0.792
REMARK UNBOUND:                 0.112
REMARK SMILES Cc1cc2c(cc1S(=O)(=O)Nc1ccc(F)cc1)n(C)c(=O)c(=O)n2C
REMARK SMILES IDX 8 1 9 2 10 3 7 4 2 5 3 6 4 7 6 8 5 9 25 10 19 11 23 12 21 13
REMARK SMILES IDX 24 14 22 15 1 16 26 17 20 18 11 19 12 21 13 22 18 23 14 24
REMARK SMILES IDX 17 25 15 26 16 27
REMARK H PARENT 11 20
ROOT
ATOM      1  S   UNL     1       0.768 -16.151  48.947  1.00  0.00     0.262 S 
ATOM      2  O   UNL     1       1.479 -17.350  49.325  1.00  0.00    -0.201 OA
ATOM      3  O   UNL     1      -0.440 -15.766  49.649  1.00  0.00    -0.201 OA
ENDROOT
BRANCH   1   4
ATOM      4  C   UNL     1       1.856 -14.733  48.970  1.00  0.00     0.092 A 
ATOM      5  C   UNL     1       1.684 -13.637  49.822  1.00  0.00    -0.028 A 
ATOM      6  C   UNL     1       2.608 -12.578  49.725  1.00  0.00     0.033 A 
ATOM      7  C   UNL     1       3.683 -12.589  48.812  1.00  0.00     0.068 A 
ATOM      8  C   UNL     1       2.918 -14.751  48.048  1.00  0.00     0.051 A 
ATOM      9  C   UNL     1       3.838 -13.692  47.960  1.00  0.00     0.069 A 
ATOM     10  N   UNL     1       4.598 -11.503  48.751  1.00  0.00    -0.305 N 
ATOM     11  N   UNL     1       4.908 -13.734  47.025  1.00  0.00    -0.305 N 
ATOM     12  C   UNL     1       5.669 -11.494  47.859  1.00  0.00     0.316 A 
ATOM     13  C   UNL     1       5.835 -12.698  46.925  1.00  0.00     0.316 A 
ATOM     14  O   UNL     1       6.483 -10.576  47.784  1.00  0.00    -0.263 OA
ATOM     15  O   UNL     1       6.776 -12.701  46.133  1.00  0.00    -0.263 OA
ATOM     16  C   UNL     1       0.569 -13.513  50.823  1.00  0.00     0.046 C 
ATOM     17  C   UNL     1       4.441 -10.353  49.629  1.00  0.00     0.154 C 
ATOM     18  C   UNL     1       5.063 -14.869  46.128  1.00  0.00     0.154 C 
ENDBRANCH   1   4
BRANCH   1  19
ATOM     19  N   UNL     1       0.333 -16.245  47.313  1.00  0.00    -0.280 N 
ATOM     20  H   UNL     1      -0.667 -16.427  47.222  1.00  0.00     0.180 HD
BRANCH  19  21
ATOM     21  C   UNL     1       1.202 -16.943  46.432  1.00  0.00     0.049 A 
ATOM     22  C   UNL     1       1.539 -18.273  46.684  1.00  0.00     0.030 A 
ATOM     23  C   UNL     1       1.740 -16.270  45.333  1.00  0.00     0.030 A 
ATOM     24  C   UNL     1       2.419 -18.936  45.827  1.00  0.00     0.041 A 
ATOM     25  C   UNL     1       2.618 -16.936  44.477  1.00  0.00     0.041 A 
ATOM     26  C   UNL     1       2.950 -18.262  44.732  1.00  0.00     0.123 A 
ATOM     27  F   UNL     1       3.794 -18.900  43.912  1.00  0.00    -0.207 F 
ENDBRANCH  19  21
ENDBRANCH   1  19
TORSDOF 3
ENDMDL
MODEL 8
REMARK VINA RESULT:    -9.189     14.369     16.820
REMARK INTER + INTRA:         -10.688
REMARK INTER:                 -10.349
REMARK INTRA:                  -0.339
REMARK UNBOUND:                 0.112
REMARK SMILES Cc1cc2c(cc1S(=O)(=O)Nc1ccc(F)cc1)n(C)c(=O)c(=O)n2C
REMARK SMILES IDX 8 1 9 2 10 3 7 4 2 5 3 6 4 7 6 8 5 9 25 10 19 11 23 12 21 13
REMARK SMILES IDX 24 14 22 15 1 16 26 17 20 18 11 19 12 21 13 22 18 23 14 24
REMARK SMILES IDX 17 25 15 26 16 27
REMARK H PARENT 11 20
ROOT
ATOM      1  S   UNL     1     -12.649 -11.903  38.789  1.00  0.00     0.262 S 
ATOM      2  O   UNL     1     -13.519 -12.701  39.621  1.00  0.00    -0.201 OA
ATOM      3  O   UNL     1     -12.366 -10.526  39.139  1.00  0.00    -0.201 OA
ENDROOT
BRANCH   1   4
ATOM      4  C   UNL     1     -11.074 -12.714  38.554  1.00  0.00     0.092 A 
ATOM      5  C   UNL     1     -10.928 -13.962  37.939  1.00  0.00    -0.028 A 
ATOM      6  C   UNL     1      -9.627 -14.494  37.833  1.00  0.00     0.033 A 
ATOM      7  C   UNL     1      -8.488 -13.818  38.318  1.00  0.00     0.068 A 
ATOM      8  C   UNL     1      -9.946 -12.035  39.051  1.00  0.00     0.051 A 
ATOM      9  C   UNL     1      -8.652 -12.571  38.938  1.00  0.00     0.069 A 
ATOM     10  N   UNL     1      -7.192 -14.387  38.184  1.00  0.00    -0.305 N 
ATOM     11  N   UNL     1      -7.526 -11.865  39.442  1.00  0.00    -0.305 N 
ATOM     12  C   UNL     1      -6.053 -13.736  38.654  1.00  0.00     0.316 A 
ATOM     13  C   UNL     1      -6.233 -12.375  39.334  1.00  0.00     0.316 A 
ATOM     14  O   UNL     1      -4.916 -14.194  38.548  1.00  0.00    -0.263 OA
ATOM     15  O   UNL     1      -5.235 -11.791  39.753  1.00  0.00    -0.263 OA
ATOM     16  C   UNL     1     -12.070 -14.775  37.398  1.00  0.00     0.046 C 
ATOM     17  C   UNL     1      -7.014 -15.683  37.545  1.00  0.00     0.154 C 
ATOM     18  C   UNL     1      -7.693 -10.578  40.101  1.00  0.00     0.154 C 
ENDBRANCH   1   4
BRANCH   1  19
ATOM     19  N   UNL     1     -13.267 -11.854  37.212  1.00  0.00    -0.280 N 
ATOM     20  H   UNL     1     -13.504 -12.794  36.895  1.00  0.00     0.180 HD
BRANCH  19  21
ATOM     21  C   UNL     1     -12.633 -10.994  36.276  1.00  0.00     0.049 A 
ATOM     22  C   UNL     1     -13.129  -9.709  36.051  1.00  0.00     0.030 A 
ATOM     23  C   UNL     1     -11.531 -11.465  35.559  1.00  0.00     0.030 A 
ATOM     24  C   UNL     1     -12.515  -8.888  35.104  1.00  0.00     0.041 A 
ATOM     25  C   UNL     1     -10.918 -10.641  34.614  1.00  0.00     0.041 A 
ATOM     26  C   UNL     1     -11.415  -9.361  34.396  1.00  0.00     0.123 A 
ATOM     27  F   UNL     1     -10.828  -8.571  33.487  1.00  0.00    -0.207 F 
ENDBRANCH  19  21
ENDBRANCH   1  19
TORSDOF 3
ENDMDL
MODEL 9
REMARK VINA RESULT:    -9.100     12.607     14.868
REMARK INTER + INTRA:         -10.583
REMARK INTER:                 -10.154
REMARK INTRA:                  -0.430
REMARK UNBOUND:                 0.112
REMARK SMILES Cc1cc2c(cc1S(=O)(=O)Nc1ccc(F)cc1)n(C)c(=O)c(=O)n2C
REMARK SMILES IDX 8 1 9 2 10 3 7 4 2 5 3 6 4 7 6 8 5 9 25 10 19 11 23 12 21 13
REMARK SMILES IDX 24 14 22 15 1 16 26 17 20 18 11 19 12 21 13 22 18 23 14 24
REMARK SMILES IDX 17 25 15 26 16 27
REMARK H PARENT 11 20
ROOT
ATOM      1  S   UNL     1      -5.769 -13.677  37.958  1.00  0.00     0.262 S 
ATOM      2  O   UNL     1      -5.802 -15.005  38.525  1.00  0.00    -0.201 OA
ATOM      3  O   UNL     1      -5.351 -13.480  36.585  1.00  0.00    -0.201 OA
ENDROOT
BRANCH   1   4
ATOM      4  C   UNL     1      -7.352 -12.868  38.139  1.00  0.00     0.092 A 
ATOM      5  C   UNL     1      -8.065 -12.818  39.342  1.00  0.00    -0.028 A 
ATOM      6  C   UNL     1      -9.311 -12.161  39.341  1.00  0.00     0.033 A 
ATOM      7  C   UNL     1      -9.851 -11.559  38.186  1.00  0.00     0.068 A 
ATOM      8  C   UNL     1      -7.886 -12.281  36.977  1.00  0.00     0.051 A 
ATOM      9  C   UNL     1      -9.128 -11.623  36.986  1.00  0.00     0.069 A 
ATOM     10  N   UNL     1     -11.109 -10.898  38.230  1.00  0.00    -0.305 N 
ATOM     11  N   UNL     1      -9.646 -11.031  35.802  1.00  0.00    -0.305 N 
ATOM     12  C   UNL     1     -11.661 -10.295  37.101  1.00  0.00     0.316 A 
ATOM     13  C   UNL     1     -10.872 -10.368  35.789  1.00  0.00     0.316 A 
ATOM     14  O   UNL     1     -12.742  -9.708  37.104  1.00  0.00    -0.263 OA
ATOM     15  O   UNL     1     -11.349  -9.840  34.787  1.00  0.00    -0.263 OA
ATOM     16  C   UNL     1      -7.591 -13.435  40.630  1.00  0.00     0.046 C 
ATOM     17  C   UNL     1     -11.867 -10.831  39.471  1.00  0.00     0.154 C 
ATOM     18  C   UNL     1      -8.906 -11.109  34.551  1.00  0.00     0.154 C 
ENDBRANCH   1   4
BRANCH   1  19
ATOM     19  N   UNL     1      -4.753 -12.692  38.888  1.00  0.00    -0.280 N 
ATOM     20  H   UNL     1      -4.984 -12.780  39.878  1.00  0.00     0.180 HD
BRANCH  19  21
ATOM     21  C   UNL     1      -4.462 -11.389  38.403  1.00  0.00     0.049 A 
ATOM     22  C   UNL     1      -5.321 -10.326  38.683  1.00  0.00     0.030 A 
ATOM     23  C   UNL     1      -3.326 -11.194  37.614  1.00  0.00     0.030 A 
ATOM     24  C   UNL     1      -5.039  -9.057  38.173  1.00  0.00     0.041 A 
ATOM     25  C   UNL     1      -3.046  -9.925  37.107  1.00  0.00     0.041 A 
ATOM     26  C   UNL     1      -3.905  -8.869  37.391  1.00  0.00     0.123 A 
ATOM     27  F   UNL     1      -3.636  -7.652  36.901  1.00  0.00    -0.207 F 
ENDBRANCH  19  21
ENDBRANCH   1  19
TORSDOF 3
ENDMDL
MODEL 10
REMARK VINA RESULT:    -9.063      1.965      3.218
REMARK INTER + INTRA:         -10.540
REMARK INTER:                 -10.574
REMARK INTRA:                   0.034
REMARK UNBOUND:                 0.112
REMARK SMILES Cc1cc2c(cc1S(=O)(=O)Nc1ccc(F)cc1)n(C)c(=O)c(=O)n2C
REMARK SMILES IDX 8 1 9 2 10 3 7 4 2 5 3 6 4 7 6 8 5 9 25 10 19 11 23 12 21 13
REMARK SMILES IDX 24 14 22 15 1 16 26 17 20 18 11 19 12 21 13 22 18 23 14 24
REMARK SMILES IDX 17 25 15 26 16 27
REMARK H PARENT 11 20
ROOT
ATOM      1  S   UNL     1       5.421 -10.777  49.130  1.00  0.00     0.262 S 
ATOM      2  O   UNL     1       6.440 -10.998  48.131  1.00  0.00    -0.201 OA
ATOM      3  O   UNL     1       5.751 -10.117  50.376  1.00  0.00    -0.201 OA
ENDROOT
BRANCH   1   4
ATOM      4  C   UNL     1       4.027  -9.902  48.432  1.00  0.00     0.092 A 
ATOM      5  C   UNL     1       2.756  -9.875  49.017  1.00  0.00    -0.028 A 
ATOM      6  C   UNL     1       1.741  -9.159  48.352  1.00  0.00     0.033 A 
ATOM      7  C   UNL     1       1.964  -8.477  47.137  1.00  0.00     0.068 A 
ATOM      8  C   UNL     1       4.258  -9.235  47.215  1.00  0.00     0.051 A 
ATOM      9  C   UNL     1       3.242  -8.518  46.561  1.00  0.00     0.069 A 
ATOM     10  N   UNL     1       0.914  -7.759  46.503  1.00  0.00    -0.305 N 
ATOM     11  N   UNL     1       3.499  -7.847  45.335  1.00  0.00    -0.305 N 
ATOM     12  C   UNL     1       1.112  -7.077  45.303  1.00  0.00     0.316 A 
ATOM     13  C   UNL     1       2.508  -7.125  44.672  1.00  0.00     0.316 A 
ATOM     14  O   UNL     1       0.231  -6.439  44.731  1.00  0.00    -0.263 OA
ATOM     15  O   UNL     1       2.695  -6.528  43.614  1.00  0.00    -0.263 OA
ATOM     16  C   UNL     1       2.403 -10.574  50.301  1.00  0.00     0.046 C 
ATOM     17  C   UNL     1      -0.415  -7.715  47.093  1.00  0.00     0.154 C 
ATOM     18  C   UNL     1       4.819  -7.901  44.725  1.00  0.00     0.154 C 
ENDBRANCH   1   4
BRANCH   1  19
ATOM     19  N   UNL     1       4.731 -12.260  49.569  1.00  0.00    -0.280 N 
ATOM     20  H   UNL     1       5.218 -12.651  50.377  1.00  0.00     0.180 HD
BRANCH  19  21
ATOM     21  C   UNL     1       4.369 -13.159  48.532  1.00  0.00     0.049 A 
ATOM     22  C   UNL     1       3.054 -13.614  48.422  1.00  0.00     0.030 A 
ATOM     23  C   UNL     1       5.351 -13.609  47.647  1.00  0.00     0.030 A 
ATOM     24  C   UNL     1       2.720 -14.523  47.416  1.00  0.00     0.041 A 
ATOM     25  C   UNL     1       5.014 -14.516  46.642  1.00  0.00     0.041 A 
ATOM     26  C   UNL     1       3.702 -14.964  46.536  1.00  0.00     0.123 A 
ATOM     27  F   UNL     1       3.379 -15.837  45.572  1.00  0.00    -0.207 F 
ENDBRANCH  19  21
ENDBRANCH   1  19
TORSDOF 3
ENDMDL
