MODEL 1
REMARK VINA RESULT:    -8.056      0.000      0.000
REMARK INTER + INTRA:         -11.232
REMARK INTER:                 -10.882
REMARK INTRA:                  -0.351
REMARK UNBOUND:                -0.351
REMARK SMILES COc1ccccc1N1CC[NH+](Cc2cccc(OC)c2OC)CC1
REMARK SMILES IDX 9 1 10 2 11 3 12 4 24 5 25 6 8 8 3 9 4 10 5 11 7 12 6 13
REMARK SMILES IDX 2 14 1 15 13 16 14 17 15 18 21 19 16 20 18 21 17 22 22 23
REMARK SMILES IDX 23 24 19 25 20 26
REMARK H PARENT 12 7
ROOT
ATOM      1  N   UNL     1      21.353  74.310  24.102  1.00  0.00    -0.357 N 
ATOM      2  C   UNL     1      20.630  73.876  22.889  1.00  0.00     0.178 C 
ATOM      3  C   UNL     1      19.982  72.496  23.122  1.00  0.00     0.284 C 
ATOM      4  N   UNL     1      21.007  71.474  23.604  1.00  0.00    -0.328 N 
ATOM      5  C   UNL     1      21.717  71.979  24.851  1.00  0.00     0.284 C 
ATOM      6  C   UNL     1      22.364  73.358  24.607  1.00  0.00     0.178 C 
ATOM      7  H   UNL     1      20.474  70.633  23.876  1.00  0.00     0.348 HD
ENDROOT
BRANCH   1   8
ATOM      8  C   UNL     1      21.876  75.623  23.969  1.00  0.00     0.080 A 
ATOM      9  C   UNL     1      21.180  76.812  24.299  1.00  0.00     0.142 A 
ATOM     10  C   UNL     1      21.811  78.050  24.120  1.00  0.00     0.048 A 
ATOM     11  C   UNL     1      23.115  78.121  23.621  1.00  0.00     0.004 A 
ATOM     12  C   UNL     1      23.187  75.719  23.469  1.00  0.00     0.030 A 
ATOM     13  C   UNL     1      23.802  76.956  23.296  1.00  0.00     0.002 A 
BRANCH   9  14
ATOM     14  O   UNL     1      19.900  76.667  24.786  1.00  0.00    -0.495 OA
ATOM     15  C   UNL     1      19.325  77.791  25.445  1.00  0.00     0.278 C 
ENDBRANCH   9  14
ENDBRANCH   1   8
BRANCH   4  16
ATOM     16  C   UNL     1      21.950  70.980  22.535  1.00  0.00     0.303 C 
BRANCH  16  17
ATOM     17  C   UNL     1      22.443  69.576  22.774  1.00  0.00     0.052 A 
ATOM     18  C   UNL     1      23.471  69.345  23.697  1.00  0.00     0.014 A 
ATOM     19  C   UNL     1      21.868  68.482  22.092  1.00  0.00     0.169 A 
ATOM     20  C   UNL     1      23.938  68.052  23.913  1.00  0.00     0.005 A 
ATOM     21  C   UNL     1      22.368  67.179  22.277  1.00  0.00     0.161 A 
ATOM     22  C   UNL     1      23.396  66.978  23.202  1.00  0.00     0.050 A 
BRANCH  19  23
ATOM     23  O   UNL     1      20.866  68.822  21.206  1.00  0.00    -0.492 OA
ATOM     24  C   UNL     1      21.270  68.876  19.833  1.00  0.00     0.278 C 
ENDBRANCH  19  23
BRANCH  21  25
ATOM     25  O   UNL     1      21.835  66.187  21.500  1.00  0.00    -0.493 OA
ATOM     26  C   UNL     1      22.409  64.886  21.589  1.00  0.00     0.278 C 
ENDBRANCH  21  25
ENDBRANCH  16  17
ENDBRANCH   4  16
TORSDOF 6
ENDMDL
MODEL 2
REMARK VINA RESULT:    -7.769      2.343      8.129
REMARK INTER + INTRA:         -10.844
REMARK INTER:                 -10.477
REMARK INTRA:                  -0.367
REMARK UNBOUND:                -0.351
REMARK SMILES COc1ccccc1N1CC[NH+](Cc2cccc(OC)c2OC)CC1
REMARK SMILES IDX 9 1 10 2 11 3 12 4 24 5 25 6 8 8 3 9 4 10 5 11 7 12 6 13
REMARK SMILES IDX 2 14 1 15 13 16 14 17 15 18 21 19 16 20 18 21 17 22 22 23
REMARK SMILES IDX 23 24 19 25 20 26
REMARK H PARENT 12 7
ROOT
ATOM      1  N   UNL     1      22.423  69.873  24.630  1.00  0.00    -0.357 N 
ATOM      2  C   UNL     1      23.266  71.031  24.995  1.00  0.00     0.178 C 
ATOM      3  C   UNL     1      22.380  72.254  25.307  1.00  0.00     0.284 C 
ATOM      4  N   UNL     1      21.419  72.553  24.162  1.00  0.00    -0.328 N 
ATOM      5  C   UNL     1      20.583  71.325  23.834  1.00  0.00     0.284 C 
ATOM      6  C   UNL     1      21.477  70.107  23.520  1.00  0.00     0.178 C 
ATOM      7  H   UNL     1      20.770  73.279  24.507  1.00  0.00     0.348 HD
ENDROOT
BRANCH   1   8
ATOM      8  C   UNL     1      23.191  68.695  24.437  1.00  0.00     0.080 A 
ATOM      9  C   UNL     1      24.184  68.217  25.329  1.00  0.00     0.142 A 
ATOM     10  C   UNL     1      24.874  67.038  25.021  1.00  0.00     0.048 A 
ATOM     11  C   UNL     1      24.593  66.333  23.847  1.00  0.00     0.004 A 
ATOM     12  C   UNL     1      22.928  67.969  23.263  1.00  0.00     0.030 A 
ATOM     13  C   UNL     1      23.621  66.798  22.969  1.00  0.00     0.002 A 
BRANCH   9  14
ATOM     14  O   UNL     1      24.406  68.962  26.466  1.00  0.00    -0.495 OA
ATOM     15  C   UNL     1      23.927  68.427  27.696  1.00  0.00     0.278 C 
ENDBRANCH   9  14
ENDBRANCH   1   8
BRANCH   4  16
ATOM     16  C   UNL     1      22.061  73.182  22.950  1.00  0.00     0.303 C 
BRANCH  16  17
ATOM     17  C   UNL     1      22.579  74.575  23.202  1.00  0.00     0.052 A 
ATOM     18  C   UNL     1      23.915  74.885  22.914  1.00  0.00     0.014 A 
ATOM     19  C   UNL     1      21.729  75.582  23.706  1.00  0.00     0.169 A 
ATOM     20  C   UNL     1      24.402  76.166  23.154  1.00  0.00     0.005 A 
ATOM     21  C   UNL     1      22.231  76.866  23.990  1.00  0.00     0.161 A 
ATOM     22  C   UNL     1      23.568  77.148  23.696  1.00  0.00     0.050 A 
BRANCH  19  23
ATOM     23  O   UNL     1      20.436  75.169  23.956  1.00  0.00    -0.492 OA
ATOM     24  C   UNL     1      19.470  75.598  22.990  1.00  0.00     0.278 C 
ENDBRANCH  19  23
BRANCH  21  25
ATOM     25  O   UNL     1      21.375  77.756  24.581  1.00  0.00    -0.493 OA
ATOM     26  C   UNL     1      21.244  77.717  25.999  1.00  0.00     0.278 C 
ENDBRANCH  21  25
ENDBRANCH  16  17
ENDBRANCH   4  16
TORSDOF 6
ENDMDL
MODEL 3
REMARK VINA RESULT:    -7.491      2.347      8.521
REMARK INTER + INTRA:         -10.470
REMARK INTER:                  -9.963
REMARK INTRA:                  -0.507
REMARK UNBOUND:                -0.351
REMARK SMILES COc1ccccc1N1CC[NH+](Cc2cccc(OC)c2OC)CC1
REMARK SMILES IDX 9 1 10 2 11 3 12 4 24 5 25 6 8 8 3 9 4 10 5 11 7 12 6 13
REMARK SMILES IDX 2 14 1 15 13 16 14 17 15 18 21 19 16 20 18 21 17 22 22 23
REMARK SMILES IDX 23 24 19 25 20 26
REMARK H PARENT 12 7
ROOT
ATOM      1  N   UNL     1      23.113  67.668  22.695  1.00  0.00    -0.357 N 
ATOM      2  C   UNL     1      21.679  67.347  22.846  1.00  0.00     0.178 C 
ATOM      3  C   UNL     1      20.839  68.198  21.871  1.00  0.00     0.284 C 
ATOM      4  N   UNL     1      21.138  69.685  22.031  1.00  0.00    -0.328 N 
ATOM      5  C   UNL     1      22.627  69.950  21.867  1.00  0.00     0.284 C 
ATOM      6  C   UNL     1      23.459  69.097  22.847  1.00  0.00     0.178 C 
ATOM      7  H   UNL     1      20.656  70.165  21.254  1.00  0.00     0.348 HD
ENDROOT
BRANCH   1   8
ATOM      8  C   UNL     1      23.933  66.833  23.497  1.00  0.00     0.080 A 
ATOM      9  C   UNL     1      24.175  65.457  23.255  1.00  0.00     0.142 A 
ATOM     10  C   UNL     1      25.006  64.742  24.126  1.00  0.00     0.048 A 
ATOM     11  C   UNL     1      25.596  65.371  25.227  1.00  0.00     0.004 A 
ATOM     12  C   UNL     1      24.536  67.442  24.611  1.00  0.00     0.030 A 
ATOM     13  C   UNL     1      25.361  66.719  25.469  1.00  0.00     0.002 A 
BRANCH   9  14
ATOM     14  O   UNL     1      23.563  64.904  22.152  1.00  0.00    -0.495 OA
ATOM     15  C   UNL     1      24.186  63.766  21.566  1.00  0.00     0.278 C 
ENDBRANCH   9  14
ENDBRANCH   1   8
BRANCH   4  16
ATOM     16  C   UNL     1      20.550  70.314  23.270  1.00  0.00     0.303 C 
BRANCH  16  17
ATOM     17  C   UNL     1      20.411  71.812  23.173  1.00  0.00     0.052 A 
ATOM     18  C   UNL     1      19.360  72.368  22.431  1.00  0.00     0.014 A 
ATOM     19  C   UNL     1      21.314  72.667  23.839  1.00  0.00     0.169 A 
ATOM     20  C   UNL     1      19.232  73.750  22.329  1.00  0.00     0.005 A 
ATOM     21  C   UNL     1      21.213  74.064  23.702  1.00  0.00     0.161 A 
ATOM     22  C   UNL     1      20.157  74.592  22.953  1.00  0.00     0.050 A 
BRANCH  19  23
ATOM     23  O   UNL     1      22.310  72.016  24.539  1.00  0.00    -0.492 OA
ATOM     24  C   UNL     1      22.034  71.811  25.929  1.00  0.00     0.278 C 
ENDBRANCH  19  23
BRANCH  21  25
ATOM     25  O   UNL     1      22.190  74.824  24.285  1.00  0.00    -0.493 OA
ATOM     26  C   UNL     1      23.236  75.320  23.455  1.00  0.00     0.278 C 
ENDBRANCH  21  25
ENDBRANCH  16  17
ENDBRANCH   4  16
TORSDOF 6
ENDMDL
MODEL 4
REMARK VINA RESULT:    -7.419      1.739      8.556
REMARK INTER + INTRA:         -10.372
REMARK INTER:                  -9.877
REMARK INTRA:                  -0.495
REMARK UNBOUND:                -0.351
REMARK SMILES COc1ccccc1N1CC[NH+](Cc2cccc(OC)c2OC)CC1
REMARK SMILES IDX 9 1 10 2 11 3 12 4 24 5 25 6 8 8 3 9 4 10 5 11 7 12 6 13
REMARK SMILES IDX 2 14 1 15 13 16 14 17 15 18 21 19 16 20 18 21 17 22 22 23
REMARK SMILES IDX 23 24 19 25 20 26
REMARK H PARENT 12 7
ROOT
ATOM      1  N   UNL     1      22.169  68.783  22.403  1.00  0.00    -0.357 N 
ATOM      2  C   UNL     1      21.171  69.221  23.401  1.00  0.00     0.178 C 
ATOM      3  C   UNL     1      20.153  70.180  22.750  1.00  0.00     0.284 C 
ATOM      4  N   UNL     1      20.852  71.343  22.054  1.00  0.00    -0.328 N 
ATOM      5  C   UNL     1      21.865  70.829  21.043  1.00  0.00     0.284 C 
ATOM      6  C   UNL     1      22.880  69.873  21.704  1.00  0.00     0.178 C 
ATOM      7  H   UNL     1      20.122  71.847  21.524  1.00  0.00     0.348 HD
ENDROOT
BRANCH   1   8
ATOM      8  C   UNL     1      23.063  67.817  22.933  1.00  0.00     0.080 A 
ATOM      9  C   UNL     1      23.032  66.432  22.634  1.00  0.00     0.142 A 
ATOM     10  C   UNL     1      23.974  65.580  23.225  1.00  0.00     0.048 A 
ATOM     11  C   UNL     1      24.938  66.083  24.103  1.00  0.00     0.004 A 
ATOM     12  C   UNL     1      24.041  68.299  23.819  1.00  0.00     0.030 A 
ATOM     13  C   UNL     1      24.972  67.441  24.400  1.00  0.00     0.002 A 
BRANCH   9  14
ATOM     14  O   UNL     1      22.056  66.007  21.760  1.00  0.00    -0.495 OA
ATOM     15  C   UNL     1      22.381  64.916  20.904  1.00  0.00     0.278 C 
ENDBRANCH   9  14
ENDBRANCH   1   8
BRANCH   4  16
ATOM     16  C   UNL     1      21.413  72.387  22.987  1.00  0.00     0.303 C 
BRANCH  16  17
ATOM     17  C   UNL     1      20.618  73.668  23.002  1.00  0.00     0.052 A 
ATOM     18  C   UNL     1      19.363  73.717  22.380  1.00  0.00     0.014 A 
ATOM     19  C   UNL     1      21.113  74.818  23.653  1.00  0.00     0.169 A 
ATOM     20  C   UNL     1      18.630  74.900  22.381  1.00  0.00     0.005 A 
ATOM     21  C   UNL     1      20.392  76.027  23.618  1.00  0.00     0.161 A 
ATOM     22  C   UNL     1      19.144  76.049  22.988  1.00  0.00     0.050 A 
BRANCH  19  23
ATOM     23  O   UNL     1      22.357  74.660  24.230  1.00  0.00    -0.492 OA
ATOM     24  C   UNL     1      23.457  75.050  23.402  1.00  0.00     0.278 C 
ENDBRANCH  19  23
BRANCH  21  25
ATOM     25  O   UNL     1      20.985  77.127  24.175  1.00  0.00    -0.493 OA
ATOM     26  C   UNL     1      20.682  77.436  25.532  1.00  0.00     0.278 C 
ENDBRANCH  21  25
ENDBRANCH  16  17
ENDBRANCH   4  16
TORSDOF 6
ENDMDL
MODEL 5
REMARK VINA RESULT:    -7.386      1.984      3.304
REMARK INTER + INTRA:         -10.328
REMARK INTER:                  -9.624
REMARK INTRA:                  -0.703
REMARK UNBOUND:                -0.351
REMARK SMILES COc1ccccc1N1CC[NH+](Cc2cccc(OC)c2OC)CC1
REMARK SMILES IDX 9 1 10 2 11 3 12 4 24 5 25 6 8 8 3 9 4 10 5 11 7 12 6 13
REMARK SMILES IDX 2 14 1 15 13 16 14 17 15 18 21 19 16 20 18 21 17 22 22 23
REMARK SMILES IDX 23 24 19 25 20 26
REMARK H PARENT 12 7
ROOT
ATOM      1  N   UNL     1      20.522  75.952  23.584  1.00  0.00    -0.357 N 
ATOM      2  C   UNL     1      21.715  75.589  24.377  1.00  0.00     0.178 C 
ATOM      3  C   UNL     1      22.501  74.466  23.669  1.00  0.00     0.284 C 
ATOM      4  N   UNL     1      21.606  73.272  23.357  1.00  0.00    -0.328 N 
ATOM      5  C   UNL     1      20.397  73.709  22.543  1.00  0.00     0.284 C 
ATOM      6  C   UNL     1      19.616  74.830  23.260  1.00  0.00     0.178 C 
ATOM      7  H   UNL     1      22.162  72.639  22.759  1.00  0.00     0.348 HD
ENDROOT
BRANCH   1   8
ATOM      8  C   UNL     1      19.826  77.054  24.145  1.00  0.00     0.080 A 
ATOM      9  C   UNL     1      18.894  77.865  23.451  1.00  0.00     0.142 A 
ATOM     10  C   UNL     1      18.274  78.927  24.121  1.00  0.00     0.048 A 
ATOM     11  C   UNL     1      18.565  79.192  25.463  1.00  0.00     0.004 A 
ATOM     12  C   UNL     1      20.103  77.340  25.493  1.00  0.00     0.030 A 
ATOM     13  C   UNL     1      19.479  78.399  26.148  1.00  0.00     0.002 A 
BRANCH   9  14
ATOM     14  O   UNL     1      18.655  77.546  22.133  1.00  0.00    -0.495 OA
ATOM     15  C   UNL     1      17.294  77.421  21.732  1.00  0.00     0.278 C 
ENDBRANCH   9  14
ENDBRANCH   1   8
BRANCH   4  16
ATOM     16  C   UNL     1      21.248  72.425  24.553  1.00  0.00     0.303 C 
BRANCH  16  17
ATOM     17  C   UNL     1      22.267  71.358  24.859  1.00  0.00     0.052 A 
ATOM     18  C   UNL     1      22.963  71.386  26.075  1.00  0.00     0.014 A 
ATOM     19  C   UNL     1      22.518  70.314  23.943  1.00  0.00     0.169 A 
ATOM     20  C   UNL     1      23.913  70.409  26.358  1.00  0.00     0.005 A 
ATOM     21  C   UNL     1      23.509  69.350  24.209  1.00  0.00     0.161 A 
ATOM     22  C   UNL     1      24.191  69.403  25.429  1.00  0.00     0.050 A 
BRANCH  19  23
ATOM     23  O   UNL     1      21.780  70.384  22.779  1.00  0.00    -0.492 OA
ATOM     24  C   UNL     1      20.644  69.514  22.733  1.00  0.00     0.278 C 
ENDBRANCH  19  23
BRANCH  21  25
ATOM     25  O   UNL     1      23.773  68.435  23.226  1.00  0.00    -0.493 OA
ATOM     26  C   UNL     1      24.069  67.098  23.619  1.00  0.00     0.278 C 
ENDBRANCH  21  25
ENDBRANCH  16  17
ENDBRANCH   4  16
TORSDOF 6
ENDMDL
MODEL 6
REMARK VINA RESULT:    -7.335      1.325      8.193
REMARK INTER + INTRA:         -10.259
REMARK INTER:                 -10.408
REMARK INTRA:                   0.149
REMARK UNBOUND:                -0.351
REMARK SMILES COc1ccccc1N1CC[NH+](Cc2cccc(OC)c2OC)CC1
REMARK SMILES IDX 9 1 10 2 11 3 12 4 24 5 25 6 8 8 3 9 4 10 5 11 7 12 6 13
REMARK SMILES IDX 2 14 1 15 13 16 14 17 15 18 21 19 16 20 18 21 17 22 22 23
REMARK SMILES IDX 23 24 19 25 20 26
REMARK H PARENT 12 7
ROOT
ATOM      1  N   UNL     1      22.261  70.280  24.501  1.00  0.00    -0.357 N 
ATOM      2  C   UNL     1      22.916  71.448  25.127  1.00  0.00     0.178 C 
ATOM      3  C   UNL     1      21.907  72.606  25.273  1.00  0.00     0.284 C 
ATOM      4  N   UNL     1      21.243  72.937  23.940  1.00  0.00    -0.328 N 
ATOM      5  C   UNL     1      20.591  71.697  23.348  1.00  0.00     0.284 C 
ATOM      6  C   UNL     1      21.607  70.545  23.203  1.00  0.00     0.178 C 
ATOM      7  H   UNL     1      20.486  73.608  24.150  1.00  0.00     0.348 HD
ENDROOT
BRANCH   1   8
ATOM      8  C   UNL     1      23.123  69.154  24.444  1.00  0.00     0.080 A 
ATOM      9  C   UNL     1      22.921  68.016  23.624  1.00  0.00     0.142 A 
ATOM     10  C   UNL     1      23.850  66.968  23.661  1.00  0.00     0.048 A 
ATOM     11  C   UNL     1      24.969  67.036  24.495  1.00  0.00     0.004 A 
ATOM     12  C   UNL     1      24.256  69.199  25.275  1.00  0.00     0.030 A 
ATOM     13  C   UNL     1      25.172  68.150  25.301  1.00  0.00     0.002 A 
BRANCH   9  14
ATOM     14  O   UNL     1      21.798  68.018  22.827  1.00  0.00    -0.495 OA
ATOM     15  C   UNL     1      21.754  67.071  21.765  1.00  0.00     0.278 C 
ENDBRANCH   9  14
ENDBRANCH   1   8
BRANCH   4  16
ATOM     16  C   UNL     1      22.126  73.674  22.964  1.00  0.00     0.303 C 
BRANCH  16  17
ATOM     17  C   UNL     1      22.332  75.124  23.319  1.00  0.00     0.052 A 
ATOM     18  C   UNL     1      23.616  75.682  23.254  1.00  0.00     0.014 A 
ATOM     19  C   UNL     1      21.243  75.938  23.699  1.00  0.00     0.169 A 
ATOM     20  C   UNL     1      23.814  77.018  23.591  1.00  0.00     0.005 A 
ATOM     21  C   UNL     1      21.449  77.277  24.082  1.00  0.00     0.161 A 
ATOM     22  C   UNL     1      22.740  77.807  24.011  1.00  0.00     0.050 A 
BRANCH  19  23
ATOM     23  O   UNL     1      20.026  75.288  23.732  1.00  0.00    -0.492 OA
ATOM     24  C   UNL     1      19.135  75.626  22.663  1.00  0.00     0.278 C 
ENDBRANCH  19  23
BRANCH  21  25
ATOM     25  O   UNL     1      20.363  77.970  24.545  1.00  0.00    -0.493 OA
ATOM     26  C   UNL     1      20.089  77.930  25.942  1.00  0.00     0.278 C 
ENDBRANCH  21  25
ENDBRANCH  16  17
ENDBRANCH   4  16
TORSDOF 6
ENDMDL
MODEL 7
REMARK VINA RESULT:    -7.289      2.264      8.401
REMARK INTER + INTRA:         -10.197
REMARK INTER:                  -9.517
REMARK INTRA:                  -0.680
REMARK UNBOUND:                -0.351
REMARK SMILES COc1ccccc1N1CC[NH+](Cc2cccc(OC)c2OC)CC1
REMARK SMILES IDX 9 1 10 2 11 3 12 4 24 5 25 6 8 8 3 9 4 10 5 11 7 12 6 13
REMARK SMILES IDX 2 14 1 15 13 16 14 17 15 18 21 19 16 20 18 21 17 22 22 23
REMARK SMILES IDX 23 24 19 25 20 26
REMARK H PARENT 12 7
ROOT
ATOM      1  N   UNL     1      23.011  67.864  22.931  1.00  0.00    -0.357 N 
ATOM      2  C   UNL     1      21.593  67.696  23.314  1.00  0.00     0.178 C 
ATOM      3  C   UNL     1      20.697  68.597  22.440  1.00  0.00     0.284 C 
ATOM      4  N   UNL     1      21.159  70.050  22.481  1.00  0.00    -0.328 N 
ATOM      5  C   UNL     1      22.622  70.156  22.080  1.00  0.00     0.284 C 
ATOM      6  C   UNL     1      23.511  69.254  22.962  1.00  0.00     0.178 C 
ATOM      7  H   UNL     1      20.610  70.551  21.765  1.00  0.00     0.348 HD
ENDROOT
BRANCH   1   8
ATOM      8  C   UNL     1      23.861  66.975  23.639  1.00  0.00     0.080 A 
ATOM      9  C   UNL     1      24.095  65.622  23.288  1.00  0.00     0.142 A 
ATOM     10  C   UNL     1      24.960  64.848  24.072  1.00  0.00     0.048 A 
ATOM     11  C   UNL     1      25.592  65.397  25.191  1.00  0.00     0.004 A 
ATOM     12  C   UNL     1      24.508  67.505  24.769  1.00  0.00     0.030 A 
ATOM     13  C   UNL     1      25.366  66.724  25.539  1.00  0.00     0.002 A 
BRANCH   9  14
ATOM     14  O   UNL     1      23.440  65.148  22.173  1.00  0.00    -0.495 OA
ATOM     15  C   UNL     1      23.795  63.847  21.715  1.00  0.00     0.278 C 
ENDBRANCH   9  14
ENDBRANCH   1   8
BRANCH   4  16
ATOM     16  C   UNL     1      20.835  70.775  23.764  1.00  0.00     0.303 C 
BRANCH  16  17
ATOM     17  C   UNL     1      20.923  72.275  23.643  1.00  0.00     0.052 A 
ATOM     18  C   UNL     1      22.007  72.958  24.211  1.00  0.00     0.014 A 
ATOM     19  C   UNL     1      19.935  73.003  22.947  1.00  0.00     0.169 A 
ATOM     20  C   UNL     1      22.088  74.343  24.112  1.00  0.00     0.005 A 
ATOM     21  C   UNL     1      19.993  74.408  22.883  1.00  0.00     0.161 A 
ATOM     22  C   UNL     1      21.084  75.065  23.460  1.00  0.00     0.050 A 
BRANCH  19  23
ATOM     23  O   UNL     1      18.913  72.233  22.430  1.00  0.00    -0.492 OA
ATOM     24  C   UNL     1      18.899  72.131  21.002  1.00  0.00     0.278 C 
ENDBRANCH  19  23
BRANCH  21  25
ATOM     25  O   UNL     1      18.942  75.052  22.287  1.00  0.00    -0.493 OA
ATOM     26  C   UNL     1      18.669  76.394  22.682  1.00  0.00     0.278 C 
ENDBRANCH  21  25
ENDBRANCH  16  17
ENDBRANCH   4  16
TORSDOF 6
ENDMDL
MODEL 8
REMARK VINA RESULT:    -7.224      3.818      7.773
REMARK INTER + INTRA:         -10.108
REMARK INTER:                  -9.490
REMARK INTRA:                  -0.618
REMARK UNBOUND:                -0.351
REMARK SMILES COc1ccccc1N1CC[NH+](Cc2cccc(OC)c2OC)CC1
REMARK SMILES IDX 9 1 10 2 11 3 12 4 24 5 25 6 8 8 3 9 4 10 5 11 7 12 6 13
REMARK SMILES IDX 2 14 1 15 13 16 14 17 15 18 21 19 16 20 18 21 17 22 22 23
REMARK SMILES IDX 23 24 19 25 20 26
REMARK H PARENT 12 7
ROOT
ATOM      1  N   UNL     1      23.671  68.598  23.699  1.00  0.00    -0.357 N 
ATOM      2  C   UNL     1      23.153  68.849  22.338  1.00  0.00     0.178 C 
ATOM      3  C   UNL     1      22.733  70.326  22.193  1.00  0.00     0.284 C 
ATOM      4  N   UNL     1      21.754  70.737  23.289  1.00  0.00    -0.328 N 
ATOM      5  C   UNL     1      22.343  70.452  24.662  1.00  0.00     0.284 C 
ATOM      6  C   UNL     1      22.757  68.973  24.799  1.00  0.00     0.178 C 
ATOM      7  H   UNL     1      21.642  71.760  23.211  1.00  0.00     0.348 HD
ENDROOT
BRANCH   1   8
ATOM      8  C   UNL     1      24.167  67.277  23.844  1.00  0.00     0.080 A 
ATOM      9  C   UNL     1      25.119  66.869  24.812  1.00  0.00     0.142 A 
ATOM     10  C   UNL     1      25.529  65.530  24.851  1.00  0.00     0.048 A 
ATOM     11  C   UNL     1      25.009  64.598  23.947  1.00  0.00     0.004 A 
ATOM     12  C   UNL     1      23.660  66.322  22.946  1.00  0.00     0.030 A 
ATOM     13  C   UNL     1      24.076  64.994  22.996  1.00  0.00     0.002 A 
BRANCH   9  14
ATOM     14  O   UNL     1      25.587  67.839  25.671  1.00  0.00    -0.495 OA
ATOM     15  C   UNL     1      25.456  67.588  27.066  1.00  0.00     0.278 C 
ENDBRANCH   9  14
ENDBRANCH   1   8
BRANCH   4  16
ATOM     16  C   UNL     1      20.355  70.200  23.114  1.00  0.00     0.303 C 
BRANCH  16  17
ATOM     17  C   UNL     1      19.446  71.134  22.356  1.00  0.00     0.052 A 
ATOM     18  C   UNL     1      19.273  72.452  22.799  1.00  0.00     0.014 A 
ATOM     19  C   UNL     1      18.779  70.704  21.189  1.00  0.00     0.169 A 
ATOM     20  C   UNL     1      18.427  73.315  22.109  1.00  0.00     0.005 A 
ATOM     21  C   UNL     1      17.889  71.561  20.515  1.00  0.00     0.161 A 
ATOM     22  C   UNL     1      17.732  72.870  20.980  1.00  0.00     0.050 A 
BRANCH  19  23
ATOM     23  O   UNL     1      19.018  69.389  20.844  1.00  0.00    -0.492 OA
ATOM     24  C   UNL     1      19.976  69.207  19.795  1.00  0.00     0.278 C 
ENDBRANCH  19  23
BRANCH  21  25
ATOM     25  O   UNL     1      17.194  71.039  19.458  1.00  0.00    -0.493 OA
ATOM     26  C   UNL     1      17.478  71.543  18.156  1.00  0.00     0.278 C 
ENDBRANCH  21  25
ENDBRANCH  16  17
ENDBRANCH   4  16
TORSDOF 6
ENDMDL
MODEL 9
REMARK VINA RESULT:    -7.050      4.967      7.662
REMARK INTER + INTRA:          -9.873
REMARK INTER:                  -9.214
REMARK INTRA:                  -0.659
REMARK UNBOUND:                -0.351
REMARK SMILES COc1ccccc1N1CC[NH+](Cc2cccc(OC)c2OC)CC1
REMARK SMILES IDX 9 1 10 2 11 3 12 4 24 5 25 6 8 8 3 9 4 10 5 11 7 12 6 13
REMARK SMILES IDX 2 14 1 15 13 16 14 17 15 18 21 19 16 20 18 21 17 22 22 23
REMARK SMILES IDX 23 24 19 25 20 26
REMARK H PARENT 12 7
ROOT
ATOM      1  N   UNL     1      22.686  67.985  23.115  1.00  0.00    -0.357 N 
ATOM      2  C   UNL     1      23.234  69.219  22.513  1.00  0.00     0.178 C 
ATOM      3  C   UNL     1      22.089  70.094  21.962  1.00  0.00     0.284 C 
ATOM      4  N   UNL     1      21.199  69.309  21.006  1.00  0.00    -0.328 N 
ATOM      5  C   UNL     1      20.669  68.053  21.681  1.00  0.00     0.284 C 
ATOM      6  C   UNL     1      21.820  67.182  22.227  1.00  0.00     0.178 C 
ATOM      7  H   UNL     1      20.385  69.911  20.803  1.00  0.00     0.348 HD
ENDROOT
BRANCH   1   8
ATOM      8  C   UNL     1      23.695  67.199  23.729  1.00  0.00     0.080 A 
ATOM      9  C   UNL     1      24.359  67.529  24.938  1.00  0.00     0.142 A 
ATOM     10  C   UNL     1      25.340  66.665  25.440  1.00  0.00     0.048 A 
ATOM     11  C   UNL     1      25.668  65.487  24.764  1.00  0.00     0.004 A 
ATOM     12  C   UNL     1      24.042  66.009  23.067  1.00  0.00     0.030 A 
ATOM     13  C   UNL     1      25.020  65.160  23.578  1.00  0.00     0.002 A 
BRANCH   9  14
ATOM     14  O   UNL     1      23.984  68.704  25.551  1.00  0.00    -0.495 OA
ATOM     15  C   UNL     1      23.858  68.685  26.969  1.00  0.00     0.278 C 
ENDBRANCH   9  14
ENDBRANCH   1   8
BRANCH   4  16
ATOM     16  C   UNL     1      21.809  69.048  19.650  1.00  0.00     0.303 C 
BRANCH  16  17
ATOM     17  C   UNL     1      20.851  68.415  18.674  1.00  0.00     0.052 A 
ATOM     18  C   UNL     1      21.193  67.212  18.042  1.00  0.00     0.014 A 
ATOM     19  C   UNL     1      19.600  69.008  18.400  1.00  0.00     0.169 A 
ATOM     20  C   UNL     1      20.318  66.628  17.131  1.00  0.00     0.005 A 
ATOM     21  C   UNL     1      18.732  68.442  17.447  1.00  0.00     0.161 A 
ATOM     22  C   UNL     1      19.100  67.243  16.829  1.00  0.00     0.050 A 
BRANCH  19  23
ATOM     23  O   UNL     1      19.366  70.189  19.074  1.00  0.00    -0.492 OA
ATOM     24  C   UNL     1      19.619  71.376  18.313  1.00  0.00     0.278 C 
ENDBRANCH  19  23
BRANCH  21  25
ATOM     25  O   UNL     1      17.588  69.133  17.153  1.00  0.00    -0.493 OA
ATOM     26  C   UNL     1      17.401  69.578  15.813  1.00  0.00     0.278 C 
ENDBRANCH  21  25
ENDBRANCH  16  17
ENDBRANCH   4  16
TORSDOF 6
ENDMDL
MODEL 10
REMARK VINA RESULT:    -7.038      4.567      6.695
REMARK INTER + INTRA:          -9.858
REMARK INTER:                  -8.909
REMARK INTRA:                  -0.948
REMARK UNBOUND:                -0.351
REMARK SMILES COc1ccccc1N1CC[NH+](Cc2cccc(OC)c2OC)CC1
REMARK SMILES IDX 9 1 10 2 11 3 12 4 24 5 25 6 8 8 3 9 4 10 5 11 7 12 6 13
REMARK SMILES IDX 2 14 1 15 13 16 14 17 15 18 21 19 16 20 18 21 17 22 22 23
REMARK SMILES IDX 23 24 19 25 20 26
REMARK H PARENT 12 7
ROOT
ATOM      1  N   UNL     1      22.831  69.784  23.317  1.00  0.00    -0.357 N 
ATOM      2  C   UNL     1      23.094  69.627  21.871  1.00  0.00     0.178 C 
ATOM      3  C   UNL     1      22.229  70.616  21.063  1.00  0.00     0.284 C 
ATOM      4  N   UNL     1      20.752  70.483  21.420  1.00  0.00    -0.328 N 
ATOM      5  C   UNL     1      20.548  70.652  22.917  1.00  0.00     0.284 C 
ATOM      6  C   UNL     1      21.414  69.657  23.717  1.00  0.00     0.178 C 
ATOM      7  H   UNL     1      20.268  71.269  20.956  1.00  0.00     0.348 HD
ENDROOT
BRANCH   1   8
ATOM      8  C   UNL     1      23.683  68.966  24.104  1.00  0.00     0.080 A 
ATOM      9  C   UNL     1      24.296  69.364  25.318  1.00  0.00     0.142 A 
ATOM     10  C   UNL     1      25.118  68.459  26.002  1.00  0.00     0.048 A 
ATOM     11  C   UNL     1      25.337  67.174  25.499  1.00  0.00     0.004 A 
ATOM     12  C   UNL     1      23.919  67.669  23.618  1.00  0.00     0.030 A 
ATOM     13  C   UNL     1      24.739  66.779  24.308  1.00  0.00     0.002 A 
BRANCH   9  14
ATOM     14  O   UNL     1      24.035  70.644  25.755  1.00  0.00    -0.495 OA
ATOM     15  C   UNL     1      23.173  70.783  26.880  1.00  0.00     0.278 C 
ENDBRANCH   9  14
ENDBRANCH   1   8
BRANCH   4  16
ATOM     16  C   UNL     1      20.078  69.256  20.858  1.00  0.00     0.303 C 
BRANCH  16  17
ATOM     17  C   UNL     1      20.276  69.090  19.373  1.00  0.00     0.052 A 
ATOM     18  C   UNL     1      20.951  67.966  18.880  1.00  0.00     0.014 A 
ATOM     19  C   UNL     1      19.770  70.046  18.465  1.00  0.00     0.169 A 
ATOM     20  C   UNL     1      21.145  67.813  17.510  1.00  0.00     0.005 A 
ATOM     21  C   UNL     1      20.004  69.915  17.083  1.00  0.00     0.161 A 
ATOM     22  C   UNL     1      20.683  68.785  16.619  1.00  0.00     0.050 A 
BRANCH  19  23
ATOM     23  O   UNL     1      19.125  71.113  19.057  1.00  0.00    -0.492 OA
ATOM     24  C   UNL     1      17.695  71.047  19.020  1.00  0.00     0.278 C 
ENDBRANCH  19  23
BRANCH  21  25
ATOM     25  O   UNL     1      19.581  70.937  16.277  1.00  0.00    -0.493 OA
ATOM     26  C   UNL     1      20.551  71.876  15.822  1.00  0.00     0.278 C 
ENDBRANCH  21  25
ENDBRANCH  16  17
ENDBRANCH   4  16
TORSDOF 6
ENDMDL
