MODEL 1
REMARK VINA RESULT:    -7.669      0.000      0.000
REMARK INTER + INTRA:         -11.034
REMARK INTER:                 -10.359
REMARK INTRA:                  -0.675
REMARK UNBOUND:                -0.675
REMARK SMILES COCCNc1nc(-c2cccc(OC)c2)nc2ccccc12
REMARK SMILES IDX 5 1 4 3 3 4 2 5 1 6 6 7 7 8 23 9 8 10 22 11 18 12 17 13
REMARK SMILES IDX 21 14 19 15 20 16 9 17 10 18 16 19 11 20 13 21 12 22 14 23
REMARK SMILES IDX 15 24
REMARK H PARENT 5 2
ROOT
ATOM      1  N   UNL     1      21.904  71.219  26.226  1.00  0.00    -0.367 N 
ATOM      2  H   UNL     1      21.444  70.338  26.009  1.00  0.00     0.162 HD
ENDROOT
BRANCH   1   3
ATOM      3  C   UNL     1      23.136  70.984  26.988  1.00  0.00     0.143 C 
BRANCH   3   4
ATOM      4  C   UNL     1      23.584  69.520  26.943  1.00  0.00     0.181 C 
BRANCH   4   5
ATOM      5  O   UNL     1      24.543  69.356  25.892  1.00  0.00    -0.383 OA
ATOM      6  C   UNL     1      25.400  68.249  26.143  1.00  0.00     0.194 C 
ENDBRANCH   4   5
ENDBRANCH   3   4
ENDBRANCH   1   3
BRANCH   1   7
ATOM      7  C   UNL     1      22.049  71.935  25.015  1.00  0.00     0.138 A 
ATOM      8  N   UNL     1      22.156  73.272  25.063  1.00  0.00    -0.211 NA
ATOM      9  C   UNL     1      22.055  71.233  23.797  1.00  0.00     0.043 A 
ATOM     10  C   UNL     1      22.301  73.933  23.903  1.00  0.00     0.162 A 
ATOM     11  C   UNL     1      21.902  69.829  23.662  1.00  0.00     0.014 A 
ATOM     12  C   UNL     1      22.215  72.019  22.650  1.00  0.00     0.076 A 
ATOM     13  N   UNL     1      22.343  73.347  22.696  1.00  0.00    -0.228 NA
ATOM     14  C   UNL     1      21.929  69.222  22.409  1.00  0.00     0.001 A 
ATOM     15  C   UNL     1      22.241  71.392  21.410  1.00  0.00     0.029 A 
ATOM     16  C   UNL     1      22.102  70.007  21.278  1.00  0.00     0.002 A 
BRANCH  10  17
ATOM     17  C   UNL     1      22.422  75.404  23.964  1.00  0.00     0.023 A 
ATOM     18  C   UNL     1      23.460  76.085  23.301  1.00  0.00     0.012 A 
ATOM     19  C   UNL     1      21.505  76.190  24.689  1.00  0.00     0.058 A 
ATOM     20  C   UNL     1      23.573  77.477  23.361  1.00  0.00     0.005 A 
ATOM     21  C   UNL     1      21.607  77.586  24.755  1.00  0.00     0.119 A 
ATOM     22  C   UNL     1      22.648  78.226  24.087  1.00  0.00     0.046 A 
BRANCH  21  23
ATOM     23  O   UNL     1      20.636  78.195  25.500  1.00  0.00    -0.497 OA
ATOM     24  C   UNL     1      19.314  77.685  25.378  1.00  0.00     0.278 C 
ENDBRANCH  21  23
ENDBRANCH  10  17
ENDBRANCH   1   7
TORSDOF 6
ENDMDL
MODEL 2
REMARK VINA RESULT:    -7.640      3.742      8.166
REMARK INTER + INTRA:         -10.995
REMARK INTER:                 -10.231
REMARK INTRA:                  -0.763
REMARK UNBOUND:                -0.675
REMARK SMILES COCCNc1nc(-c2cccc(OC)c2)nc2ccccc12
REMARK SMILES IDX 5 1 4 3 3 4 2 5 1 6 6 7 7 8 23 9 8 10 22 11 18 12 17 13
REMARK SMILES IDX 21 14 19 15 20 16 9 17 10 18 16 19 11 20 13 21 12 22 14 23
REMARK SMILES IDX 15 24
REMARK H PARENT 5 2
ROOT
ATOM      1  N   UNL     1      22.466  69.775  21.024  1.00  0.00    -0.367 N 
ATOM      2  H   UNL     1      23.354  69.844  20.533  1.00  0.00     0.162 HD
ENDROOT
BRANCH   1   3
ATOM      3  C   UNL     1      21.726  68.585  20.588  1.00  0.00     0.143 C 
BRANCH   3   4
ATOM      4  C   UNL     1      20.301  68.540  21.148  1.00  0.00     0.181 C 
BRANCH   4   5
ATOM      5  O   UNL     1      19.385  68.965  20.132  1.00  0.00    -0.383 OA
ATOM      6  C   UNL     1      18.892  70.273  20.395  1.00  0.00     0.194 C 
ENDBRANCH   4   5
ENDBRANCH   3   4
ENDBRANCH   1   3
BRANCH   1   7
ATOM      7  C   UNL     1      22.737  69.864  22.410  1.00  0.00     0.138 A 
ATOM      8  N   UNL     1      23.392  68.857  23.006  1.00  0.00    -0.211 NA
ATOM      9  C   UNL     1      22.293  70.990  23.126  1.00  0.00     0.043 A 
ATOM     10  C   UNL     1      23.646  68.963  24.321  1.00  0.00     0.162 A 
ATOM     11  C   UNL     1      21.558  72.071  22.577  1.00  0.00     0.014 A 
ATOM     12  C   UNL     1      22.615  71.000  24.488  1.00  0.00     0.076 A 
ATOM     13  N   UNL     1      23.286  70.009  25.081  1.00  0.00    -0.228 NA
ATOM     14  C   UNL     1      21.169  73.148  23.369  1.00  0.00     0.001 A 
ATOM     15  C   UNL     1      22.219  72.087  25.259  1.00  0.00     0.029 A 
ATOM     16  C   UNL     1      21.504  73.158  24.715  1.00  0.00     0.002 A 
BRANCH  10  17
ATOM     17  C   UNL     1      24.372  67.852  24.970  1.00  0.00     0.023 A 
ATOM     18  C   UNL     1      24.772  67.922  26.318  1.00  0.00     0.012 A 
ATOM     19  C   UNL     1      24.695  66.673  24.270  1.00  0.00     0.058 A 
ATOM     20  C   UNL     1      25.458  66.870  26.930  1.00  0.00     0.005 A 
ATOM     21  C   UNL     1      25.382  65.612  24.872  1.00  0.00     0.119 A 
ATOM     22  C   UNL     1      25.763  65.717  26.208  1.00  0.00     0.046 A 
BRANCH  21  23
ATOM     23  O   UNL     1      25.616  64.543  24.052  1.00  0.00    -0.497 OA
ATOM     24  C   UNL     1      24.677  64.313  23.009  1.00  0.00     0.278 C 
ENDBRANCH  21  23
ENDBRANCH  10  17
ENDBRANCH   1   7
TORSDOF 6
ENDMDL
MODEL 3
REMARK VINA RESULT:    -7.582      3.837      6.769
REMARK INTER + INTRA:         -10.916
REMARK INTER:                 -10.195
REMARK INTRA:                  -0.721
REMARK UNBOUND:                -0.675
REMARK SMILES COCCNc1nc(-c2cccc(OC)c2)nc2ccccc12
REMARK SMILES IDX 5 1 4 3 3 4 2 5 1 6 6 7 7 8 23 9 8 10 22 11 18 12 17 13
REMARK SMILES IDX 21 14 19 15 20 16 9 17 10 18 16 19 11 20 13 21 12 22 14 23
REMARK SMILES IDX 15 24
REMARK H PARENT 5 2
ROOT
ATOM      1  N   UNL     1      24.392  69.284  25.739  1.00  0.00    -0.367 N 
ATOM      2  H   UNL     1      25.402  69.256  25.612  1.00  0.00     0.162 HD
ENDROOT
BRANCH   1   3
ATOM      3  C   UNL     1      23.930  70.669  25.892  1.00  0.00     0.143 C 
BRANCH   3   4
ATOM      4  C   UNL     1      23.074  70.868  27.146  1.00  0.00     0.181 C 
BRANCH   4   5
ATOM      5  O   UNL     1      22.196  71.981  26.942  1.00  0.00    -0.383 OA
ATOM      6  C   UNL     1      21.906  72.163  25.562  1.00  0.00     0.194 C 
ENDBRANCH   4   5
ENDBRANCH   3   4
ENDBRANCH   1   3
BRANCH   1   7
ATOM      7  C   UNL     1      23.808  68.548  24.682  1.00  0.00     0.138 A 
ATOM      8  N   UNL     1      22.784  69.090  24.005  1.00  0.00    -0.211 NA
ATOM      9  C   UNL     1      24.297  67.263  24.387  1.00  0.00     0.043 A 
ATOM     10  C   UNL     1      22.248  68.378  23.000  1.00  0.00     0.162 A 
ATOM     11  C   UNL     1      25.342  66.605  25.084  1.00  0.00     0.014 A 
ATOM     12  C   UNL     1      23.668  66.611  23.319  1.00  0.00     0.076 A 
ATOM     13  N   UNL     1      22.663  67.158  22.630  1.00  0.00    -0.228 NA
ATOM     14  C   UNL     1      25.762  65.331  24.710  1.00  0.00     0.001 A 
ATOM     15  C   UNL     1      24.106  65.342  22.961  1.00  0.00     0.029 A 
ATOM     16  C   UNL     1      25.144  64.698  23.642  1.00  0.00     0.002 A 
BRANCH  10  17
ATOM     17  C   UNL     1      21.124  68.984  22.257  1.00  0.00     0.023 A 
ATOM     18  C   UNL     1      20.406  70.080  22.773  1.00  0.00     0.012 A 
ATOM     19  C   UNL     1      20.721  68.493  21.000  1.00  0.00     0.058 A 
ATOM     20  C   UNL     1      19.344  70.652  22.068  1.00  0.00     0.005 A 
ATOM     21  C   UNL     1      19.658  69.059  20.284  1.00  0.00     0.119 A 
ATOM     22  C   UNL     1      18.970  70.142  20.826  1.00  0.00     0.046 A 
BRANCH  21  23
ATOM     23  O   UNL     1      19.398  68.462  19.081  1.00  0.00    -0.497 OA
ATOM     24  C   UNL     1      20.509  68.225  18.226  1.00  0.00     0.278 C 
ENDBRANCH  21  23
ENDBRANCH  10  17
ENDBRANCH   1   7
TORSDOF 6
ENDMDL
MODEL 4
REMARK VINA RESULT:    -7.541      3.992      8.689
REMARK INTER + INTRA:         -10.861
REMARK INTER:                 -10.095
REMARK INTRA:                  -0.767
REMARK UNBOUND:                -0.675
REMARK SMILES COCCNc1nc(-c2cccc(OC)c2)nc2ccccc12
REMARK SMILES IDX 5 1 4 3 3 4 2 5 1 6 6 7 7 8 23 9 8 10 22 11 18 12 17 13
REMARK SMILES IDX 21 14 19 15 20 16 9 17 10 18 16 19 11 20 13 21 12 22 14 23
REMARK SMILES IDX 15 24
REMARK H PARENT 5 2
ROOT
ATOM      1  N   UNL     1      19.973  69.053  21.866  1.00  0.00    -0.367 N 
ATOM      2  H   UNL     1      19.466  69.932  21.948  1.00  0.00     0.162 HD
ENDROOT
BRANCH   1   3
ATOM      3  C   UNL     1      20.238  68.742  20.456  1.00  0.00     0.143 C 
BRANCH   3   4
ATOM      4  C   UNL     1      20.879  69.913  19.705  1.00  0.00     0.181 C 
BRANCH   4   5
ATOM      5  O   UNL     1      20.055  71.074  19.858  1.00  0.00    -0.383 OA
ATOM      6  C   UNL     1      19.256  71.297  18.703  1.00  0.00     0.194 C 
ENDBRANCH   4   5
ENDBRANCH   3   4
ENDBRANCH   1   3
BRANCH   1   7
ATOM      7  C   UNL     1      21.107  69.134  22.707  1.00  0.00     0.138 A 
ATOM      8  N   UNL     1      21.898  68.056  22.831  1.00  0.00    -0.211 NA
ATOM      9  C   UNL     1      21.362  70.326  23.407  1.00  0.00     0.043 A 
ATOM     10  C   UNL     1      22.974  68.154  23.629  1.00  0.00     0.162 A 
ATOM     11  C   UNL     1      20.550  71.489  23.363  1.00  0.00     0.014 A 
ATOM     12  C   UNL     1      22.511  70.320  24.206  1.00  0.00     0.076 A 
ATOM     13  N   UNL     1      23.311  69.257  24.315  1.00  0.00    -0.228 NA
ATOM     14  C   UNL     1      20.891  72.628  24.089  1.00  0.00     0.001 A 
ATOM     15  C   UNL     1      22.833  71.469  24.920  1.00  0.00     0.029 A 
ATOM     16  C   UNL     1      22.039  72.619  24.868  1.00  0.00     0.002 A 
BRANCH  10  17
ATOM     17  C   UNL     1      23.842  66.965  23.756  1.00  0.00     0.023 A 
ATOM     18  C   UNL     1      24.918  66.934  24.663  1.00  0.00     0.012 A 
ATOM     19  C   UNL     1      23.631  65.811  22.977  1.00  0.00     0.058 A 
ATOM     20  C   UNL     1      25.738  65.809  24.782  1.00  0.00     0.005 A 
ATOM     21  C   UNL     1      24.446  64.677  23.088  1.00  0.00     0.119 A 
ATOM     22  C   UNL     1      25.502  64.682  23.996  1.00  0.00     0.046 A 
BRANCH  21  23
ATOM     23  O   UNL     1      24.103  63.645  22.259  1.00  0.00    -0.497 OA
ATOM     24  C   UNL     1      24.805  63.548  21.026  1.00  0.00     0.278 C 
ENDBRANCH  21  23
ENDBRANCH  10  17
ENDBRANCH   1   7
TORSDOF 6
ENDMDL
MODEL 5
REMARK VINA RESULT:    -7.329      2.248      7.580
REMARK INTER + INTRA:         -10.575
REMARK INTER:                 -10.012
REMARK INTRA:                  -0.563
REMARK UNBOUND:                -0.675
REMARK SMILES COCCNc1nc(-c2cccc(OC)c2)nc2ccccc12
REMARK SMILES IDX 5 1 4 3 3 4 2 5 1 6 6 7 7 8 23 9 8 10 22 11 18 12 17 13
REMARK SMILES IDX 21 14 19 15 20 16 9 17 10 18 16 19 11 20 13 21 12 22 14 23
REMARK SMILES IDX 15 24
REMARK H PARENT 5 2
ROOT
ATOM      1  N   UNL     1      21.464  72.323  24.633  1.00  0.00    -0.367 N 
ATOM      2  H   UNL     1      21.420  72.316  25.650  1.00  0.00     0.162 HD
ENDROOT
BRANCH   1   3
ATOM      3  C   UNL     1      22.426  73.328  24.166  1.00  0.00     0.143 C 
BRANCH   3   4
ATOM      4  C   UNL     1      21.748  74.625  23.712  1.00  0.00     0.181 C 
BRANCH   4   5
ATOM      5  O   UNL     1      21.596  75.493  24.841  1.00  0.00    -0.383 OA
ATOM      6  C   UNL     1      22.001  76.821  24.530  1.00  0.00     0.194 C 
ENDBRANCH   4   5
ENDBRANCH   3   4
ENDBRANCH   1   3
BRANCH   1   7
ATOM      7  C   UNL     1      21.696  70.996  24.206  1.00  0.00     0.138 A 
ATOM      8  N   UNL     1      22.591  70.250  24.872  1.00  0.00    -0.211 NA
ATOM      9  C   UNL     1      21.005  70.502  23.086  1.00  0.00     0.043 A 
ATOM     10  C   UNL     1      22.793  68.988  24.456  1.00  0.00     0.162 A 
ATOM     11  C   UNL     1      20.079  71.241  22.305  1.00  0.00     0.014 A 
ATOM     12  C   UNL     1      21.287  69.175  22.741  1.00  0.00     0.076 A 
ATOM     13  N   UNL     1      22.161  68.424  23.415  1.00  0.00    -0.228 NA
ATOM     14  C   UNL     1      19.437  70.660  21.214  1.00  0.00     0.001 A 
ATOM     15  C   UNL     1      20.632  68.615  21.651  1.00  0.00     0.029 A 
ATOM     16  C   UNL     1      19.712  69.340  20.888  1.00  0.00     0.002 A 
BRANCH  10  17
ATOM     17  C   UNL     1      23.776  68.172  25.197  1.00  0.00     0.023 A 
ATOM     18  C   UNL     1      24.096  68.446  26.540  1.00  0.00     0.012 A 
ATOM     19  C   UNL     1      24.437  67.085  24.594  1.00  0.00     0.058 A 
ATOM     20  C   UNL     1      25.027  67.673  27.240  1.00  0.00     0.005 A 
ATOM     21  C   UNL     1      25.371  66.303  25.285  1.00  0.00     0.119 A 
ATOM     22  C   UNL     1      25.663  66.603  26.613  1.00  0.00     0.046 A 
BRANCH  21  23
ATOM     23  O   UNL     1      25.920  65.287  24.551  1.00  0.00    -0.497 OA
ATOM     24  C   UNL     1      25.088  64.677  23.573  1.00  0.00     0.278 C 
ENDBRANCH  21  23
ENDBRANCH  10  17
ENDBRANCH   1   7
TORSDOF 6
ENDMDL
MODEL 6
REMARK VINA RESULT:    -7.158      4.067      8.398
REMARK INTER + INTRA:         -10.343
REMARK INTER:                  -9.696
REMARK INTRA:                  -0.647
REMARK UNBOUND:                -0.675
REMARK SMILES COCCNc1nc(-c2cccc(OC)c2)nc2ccccc12
REMARK SMILES IDX 5 1 4 3 3 4 2 5 1 6 6 7 7 8 23 9 8 10 22 11 18 12 17 13
REMARK SMILES IDX 21 14 19 15 20 16 9 17 10 18 16 19 11 20 13 21 12 22 14 23
REMARK SMILES IDX 15 24
REMARK H PARENT 5 2
ROOT
ATOM      1  N   UNL     1      19.751  68.488  21.158  1.00  0.00    -0.367 N 
ATOM      2  H   UNL     1      18.856  68.925  21.366  1.00  0.00     0.162 HD
ENDROOT
BRANCH   1   3
ATOM      3  C   UNL     1      20.098  68.672  19.744  1.00  0.00     0.143 C 
BRANCH   3   4
ATOM      4  C   UNL     1      18.891  69.075  18.890  1.00  0.00     0.181 C 
BRANCH   4   5
ATOM      5  O   UNL     1      19.199  70.282  18.184  1.00  0.00    -0.383 OA
ATOM      6  C   UNL     1      20.543  70.686  18.414  1.00  0.00     0.194 C 
ENDBRANCH   4   5
ENDBRANCH   3   4
ENDBRANCH   1   3
BRANCH   1   7
ATOM      7  C   UNL     1      20.692  68.972  22.096  1.00  0.00     0.138 A 
ATOM      8  N   UNL     1      21.635  68.136  22.556  1.00  0.00    -0.211 NA
ATOM      9  C   UNL     1      20.601  70.304  22.538  1.00  0.00     0.043 A 
ATOM     10  C   UNL     1      22.524  68.616  23.441  1.00  0.00     0.162 A 
ATOM     11  C   UNL     1      19.608  71.234  22.134  1.00  0.00     0.014 A 
ATOM     12  C   UNL     1      21.579  70.701  23.457  1.00  0.00     0.076 A 
ATOM     13  N   UNL     1      22.532  69.877  23.900  1.00  0.00    -0.228 NA
ATOM     14  C   UNL     1      19.605  72.537  22.623  1.00  0.00     0.001 A 
ATOM     15  C   UNL     1      21.559  72.008  23.930  1.00  0.00     0.029 A 
ATOM     16  C   UNL     1      20.587  72.927  23.523  1.00  0.00     0.002 A 
BRANCH  10  17
ATOM     17  C   UNL     1      23.562  67.690  23.939  1.00  0.00     0.023 A 
ATOM     18  C   UNL     1      24.306  67.975  25.100  1.00  0.00     0.012 A 
ATOM     19  C   UNL     1      23.854  66.483  23.275  1.00  0.00     0.058 A 
ATOM     20  C   UNL     1      25.287  67.098  25.570  1.00  0.00     0.005 A 
ATOM     21  C   UNL     1      24.835  65.596  23.737  1.00  0.00     0.119 A 
ATOM     22  C   UNL     1      25.551  65.911  24.889  1.00  0.00     0.046 A 
BRANCH  21  23
ATOM     23  O   UNL     1      24.991  64.471  22.976  1.00  0.00    -0.497 OA
ATOM     24  C   UNL     1      23.841  63.658  22.784  1.00  0.00     0.278 C 
ENDBRANCH  21  23
ENDBRANCH  10  17
ENDBRANCH   1   7
TORSDOF 6
ENDMDL
MODEL 7
REMARK VINA RESULT:    -7.149      3.409      7.374
REMARK INTER + INTRA:         -10.331
REMARK INTER:                  -9.625
REMARK INTRA:                  -0.706
REMARK UNBOUND:                -0.675
REMARK SMILES COCCNc1nc(-c2cccc(OC)c2)nc2ccccc12
REMARK SMILES IDX 5 1 4 3 3 4 2 5 1 6 6 7 7 8 23 9 8 10 22 11 18 12 17 13
REMARK SMILES IDX 21 14 19 15 20 16 9 17 10 18 16 19 11 20 13 21 12 22 14 23
REMARK SMILES IDX 15 24
REMARK H PARENT 5 2
ROOT
ATOM      1  N   UNL     1      19.005  69.892  21.608  1.00  0.00    -0.367 N 
ATOM      2  H   UNL     1      18.472  70.734  21.400  1.00  0.00     0.162 HD
ENDROOT
BRANCH   1   3
ATOM      3  C   UNL     1      19.260  69.127  20.382  1.00  0.00     0.143 C 
BRANCH   3   4
ATOM      4  C   UNL     1      20.245  69.831  19.444  1.00  0.00     0.181 C 
BRANCH   4   5
ATOM      5  O   UNL     1      20.928  68.848  18.659  1.00  0.00    -0.383 OA
ATOM      6  C   UNL     1      21.695  67.974  19.478  1.00  0.00     0.194 C 
ENDBRANCH   4   5
ENDBRANCH   3   4
ENDBRANCH   1   3
BRANCH   1   7
ATOM      7  C   UNL     1      20.147  70.281  22.346  1.00  0.00     0.138 A 
ATOM      8  N   UNL     1      21.026  69.339  22.721  1.00  0.00    -0.211 NA
ATOM      9  C   UNL     1      20.318  71.635  22.687  1.00  0.00     0.043 A 
ATOM     10  C   UNL     1      22.108  69.729  23.415  1.00  0.00     0.162 A 
ATOM     11  C   UNL     1      19.413  72.679  22.366  1.00  0.00     0.014 A 
ATOM     12  C   UNL     1      21.482  71.931  23.406  1.00  0.00     0.076 A 
ATOM     13  N   UNL     1      22.369  70.999  23.762  1.00  0.00    -0.228 NA
ATOM     14  C   UNL     1      19.675  73.994  22.742  1.00  0.00     0.001 A 
ATOM     15  C   UNL     1      21.724  73.251  23.768  1.00  0.00     0.029 A 
ATOM     16  C   UNL     1      20.838  74.282  23.443  1.00  0.00     0.002 A 
BRANCH  10  17
ATOM     17  C   UNL     1      23.073  68.687  23.820  1.00  0.00     0.023 A 
ATOM     18  C   UNL     1      23.181  67.471  23.118  1.00  0.00     0.012 A 
ATOM     19  C   UNL     1      23.928  68.862  24.926  1.00  0.00     0.058 A 
ATOM     20  C   UNL     1      24.095  66.486  23.503  1.00  0.00     0.005 A 
ATOM     21  C   UNL     1      24.847  67.882  25.321  1.00  0.00     0.119 A 
ATOM     22  C   UNL     1      24.926  66.691  24.602  1.00  0.00     0.046 A 
BRANCH  21  23
ATOM     23  O   UNL     1      25.600  68.212  26.414  1.00  0.00    -0.497 OA
ATOM     24  C   UNL     1      25.631  67.274  27.482  1.00  0.00     0.278 C 
ENDBRANCH  21  23
ENDBRANCH  10  17
ENDBRANCH   1   7
TORSDOF 6
ENDMDL
MODEL 8
REMARK VINA RESULT:    -7.112      2.778      7.147
REMARK INTER + INTRA:         -10.282
REMARK INTER:                  -9.687
REMARK INTRA:                  -0.594
REMARK UNBOUND:                -0.675
REMARK SMILES COCCNc1nc(-c2cccc(OC)c2)nc2ccccc12
REMARK SMILES IDX 5 1 4 3 3 4 2 5 1 6 6 7 7 8 23 9 8 10 22 11 18 12 17 13
REMARK SMILES IDX 21 14 19 15 20 16 9 17 10 18 16 19 11 20 13 21 12 22 14 23
REMARK SMILES IDX 15 24
REMARK H PARENT 5 2
ROOT
ATOM      1  N   UNL     1      19.896  71.534  23.849  1.00  0.00    -0.367 N 
ATOM      2  H   UNL     1      19.872  71.259  24.829  1.00  0.00     0.162 HD
ENDROOT
BRANCH   1   3
ATOM      3  C   UNL     1      20.574  72.826  23.693  1.00  0.00     0.143 C 
BRANCH   3   4
ATOM      4  C   UNL     1      21.536  73.128  24.846  1.00  0.00     0.181 C 
BRANCH   4   5
ATOM      5  O   UNL     1      22.739  73.696  24.315  1.00  0.00    -0.383 OA
ATOM      6  C   UNL     1      22.494  74.969  23.729  1.00  0.00     0.194 C 
ENDBRANCH   4   5
ENDBRANCH   3   4
ENDBRANCH   1   3
BRANCH   1   7
ATOM      7  C   UNL     1      20.440  70.454  23.116  1.00  0.00     0.138 A 
ATOM      8  N   UNL     1      21.436  69.739  23.661  1.00  0.00    -0.211 NA
ATOM      9  C   UNL     1      19.942  70.174  21.831  1.00  0.00     0.043 A 
ATOM     10  C   UNL     1      21.935  68.713  22.952  1.00  0.00     0.162 A 
ATOM     11  C   UNL     1      18.924  70.910  21.170  1.00  0.00     0.014 A 
ATOM     12  C   UNL     1      20.530  69.082  21.183  1.00  0.00     0.076 A 
ATOM     13  N   UNL     1      21.507  68.356  21.732  1.00  0.00    -0.228 NA
ATOM     14  C   UNL     1      18.492  70.549  19.897  1.00  0.00     0.001 A 
ATOM     15  C   UNL     1      20.081  68.738  19.913  1.00  0.00     0.029 A 
ATOM     16  C   UNL     1      19.070  69.457  19.267  1.00  0.00     0.002 A 
BRANCH  10  17
ATOM     17  C   UNL     1      23.029  67.928  23.561  1.00  0.00     0.023 A 
ATOM     18  C   UNL     1      23.468  66.716  22.996  1.00  0.00     0.012 A 
ATOM     19  C   UNL     1      23.680  68.358  24.734  1.00  0.00     0.058 A 
ATOM     20  C   UNL     1      24.502  65.975  23.573  1.00  0.00     0.005 A 
ATOM     21  C   UNL     1      24.718  67.624  25.321  1.00  0.00     0.119 A 
ATOM     22  C   UNL     1      25.126  66.428  24.734  1.00  0.00     0.046 A 
BRANCH  21  23
ATOM     23  O   UNL     1      25.242  68.181  26.455  1.00  0.00    -0.497 OA
ATOM     24  C   UNL     1      25.656  67.288  27.481  1.00  0.00     0.278 C 
ENDBRANCH  21  23
ENDBRANCH  10  17
ENDBRANCH   1   7
TORSDOF 6
ENDMDL
MODEL 9
REMARK VINA RESULT:    -7.080      3.684      6.594
REMARK INTER + INTRA:         -10.238
REMARK INTER:                  -9.418
REMARK INTRA:                  -0.820
REMARK UNBOUND:                -0.675
REMARK SMILES COCCNc1nc(-c2cccc(OC)c2)nc2ccccc12
REMARK SMILES IDX 5 1 4 3 3 4 2 5 1 6 6 7 7 8 23 9 8 10 22 11 18 12 17 13
REMARK SMILES IDX 21 14 19 15 20 16 9 17 10 18 16 19 11 20 13 21 12 22 14 23
REMARK SMILES IDX 15 24
REMARK H PARENT 5 2
ROOT
ATOM      1  N   UNL     1      21.031  67.485  20.843  1.00  0.00    -0.367 N 
ATOM      2  H   UNL     1      20.520  66.618  20.695  1.00  0.00     0.162 HD
ENDROOT
BRANCH   1   3
ATOM      3  C   UNL     1      20.101  68.605  21.030  1.00  0.00     0.143 C 
BRANCH   3   4
ATOM      4  C   UNL     1      20.242  69.674  19.942  1.00  0.00     0.181 C 
BRANCH   4   5
ATOM      5  O   UNL     1      21.573  70.201  19.973  1.00  0.00    -0.383 OA
ATOM      6  C   UNL     1      21.733  71.137  21.032  1.00  0.00     0.194 C 
ENDBRANCH   4   5
ENDBRANCH   3   4
ENDBRANCH   1   3
BRANCH   1   7
ATOM      7  C   UNL     1      21.955  67.264  21.890  1.00  0.00     0.138 A 
ATOM      8  N   UNL     1      22.098  68.205  22.836  1.00  0.00    -0.211 NA
ATOM      9  C   UNL     1      22.715  66.081  21.900  1.00  0.00     0.043 A 
ATOM     10  C   UNL     1      22.975  67.974  23.827  1.00  0.00     0.162 A 
ATOM     11  C   UNL     1      22.653  65.062  20.914  1.00  0.00     0.014 A 
ATOM     12  C   UNL     1      23.595  65.940  22.979  1.00  0.00     0.076 A 
ATOM     13  N   UNL     1      23.723  66.865  23.933  1.00  0.00    -0.228 NA
ATOM     14  C   UNL     1      23.442  63.919  21.015  1.00  0.00     0.001 A 
ATOM     15  C   UNL     1      24.370  64.789  23.061  1.00  0.00     0.029 A 
ATOM     16  C   UNL     1      24.302  63.780  22.095  1.00  0.00     0.002 A 
BRANCH  10  17
ATOM     17  C   UNL     1      23.123  69.013  24.867  1.00  0.00     0.023 A 
ATOM     18  C   UNL     1      23.591  68.700  26.157  1.00  0.00     0.012 A 
ATOM     19  C   UNL     1      22.802  70.361  24.614  1.00  0.00     0.058 A 
ATOM     20  C   UNL     1      23.730  69.684  27.140  1.00  0.00     0.005 A 
ATOM     21  C   UNL     1      22.938  71.355  25.590  1.00  0.00     0.119 A 
ATOM     22  C   UNL     1      23.404  71.010  26.857  1.00  0.00     0.046 A 
BRANCH  21  23
ATOM     23  O   UNL     1      22.583  72.611  25.180  1.00  0.00    -0.497 OA
ATOM     24  C   UNL     1      21.351  72.737  24.482  1.00  0.00     0.278 C 
ENDBRANCH  21  23
ENDBRANCH  10  17
ENDBRANCH   1   7
TORSDOF 6
ENDMDL
MODEL 10
REMARK VINA RESULT:    -6.928      2.535      4.157
REMARK INTER + INTRA:         -10.033
REMARK INTER:                  -9.471
REMARK INTRA:                  -0.562
REMARK UNBOUND:                -0.675
REMARK SMILES COCCNc1nc(-c2cccc(OC)c2)nc2ccccc12
REMARK SMILES IDX 5 1 4 3 3 4 2 5 1 6 6 7 7 8 23 9 8 10 22 11 18 12 17 13
REMARK SMILES IDX 21 14 19 15 20 16 9 17 10 18 16 19 11 20 13 21 12 22 14 23
REMARK SMILES IDX 15 24
REMARK H PARENT 5 2
ROOT
ATOM      1  N   UNL     1      20.624  71.440  21.668  1.00  0.00    -0.367 N 
ATOM      2  H   UNL     1      20.997  70.508  21.496  1.00  0.00     0.162 HD
ENDROOT
BRANCH   1   3
ATOM      3  C   UNL     1      19.169  71.387  21.852  1.00  0.00     0.143 C 
BRANCH   3   4
ATOM      4  C   UNL     1      18.404  71.925  20.639  1.00  0.00     0.181 C 
BRANCH   4   5
ATOM      5  O   UNL     1      18.163  70.851  19.723  1.00  0.00    -0.383 OA
ATOM      6  C   UNL     1      18.719  71.129  18.443  1.00  0.00     0.194 C 
ENDBRANCH   4   5
ENDBRANCH   3   4
ENDBRANCH   1   3
BRANCH   1   7
ATOM      7  C   UNL     1      21.364  72.006  22.731  1.00  0.00     0.138 A 
ATOM      8  N   UNL     1      21.389  73.342  22.862  1.00  0.00    -0.211 NA
ATOM      9  C   UNL     1      22.071  71.161  23.605  1.00  0.00     0.043 A 
ATOM     10  C   UNL     1      22.091  73.861  23.883  1.00  0.00     0.162 A 
ATOM     11  C   UNL     1      22.130  69.747  23.506  1.00  0.00     0.014 A 
ATOM     12  C   UNL     1      22.766  71.807  24.635  1.00  0.00     0.076 A 
ATOM     13  N   UNL     1      22.774  73.134  24.780  1.00  0.00    -0.228 NA
ATOM     14  C   UNL     1      22.853  68.994  24.427  1.00  0.00     0.001 A 
ATOM     15  C   UNL     1      23.478  71.035  25.545  1.00  0.00     0.029 A 
ATOM     16  C   UNL     1      23.528  69.640  25.453  1.00  0.00     0.002 A 
BRANCH  10  17
ATOM     17  C   UNL     1      22.110  75.332  24.022  1.00  0.00     0.023 A 
ATOM     18  C   UNL     1      23.165  76.106  23.504  1.00  0.00     0.012 A 
ATOM     19  C   UNL     1      21.074  76.024  24.679  1.00  0.00     0.058 A 
ATOM     20  C   UNL     1      23.181  77.497  23.637  1.00  0.00     0.005 A 
ATOM     21  C   UNL     1      21.079  77.417  24.818  1.00  0.00     0.119 A 
ATOM     22  C   UNL     1      22.139  78.152  24.293  1.00  0.00     0.046 A 
BRANCH  21  23
ATOM     23  O   UNL     1      19.998  77.929  25.482  1.00  0.00    -0.497 OA
ATOM     24  C   UNL     1      19.207  78.884  24.787  1.00  0.00     0.278 C 
ENDBRANCH  21  23
ENDBRANCH  10  17
ENDBRANCH   1   7
TORSDOF 6
ENDMDL
