MODEL 1
REMARK VINA RESULT:    -7.094      0.000      0.000
REMARK INTER + INTRA:          -9.235
REMARK INTER:                  -8.753
REMARK INTRA:                  -0.482
REMARK UNBOUND:                -0.482
REMARK SMILES CCn1c(SCC(N)=O)nc2ccccc2c1=O
REMARK SMILES IDX 5 1 4 2 3 3 17 4 10 5 16 6 18 7 11 8 15 9 12 10 14 11 13 12
REMARK SMILES IDX 2 13 1 14 6 15 7 16 8 17 9 18
REMARK H PARENT 8 19 8 20
ROOT
ATOM      1  S   UNL     1      22.529  70.717  24.676  1.00  0.00    -0.078 SA
ENDROOT
BRANCH   1   2
ATOM      2  C   UNL     1      23.012  69.109  24.167  1.00  0.00     0.171 A 
ATOM      3  N   UNL     1      22.406  68.560  23.047  1.00  0.00    -0.287 N 
ATOM      4  C   UNL     1      22.717  67.258  22.649  1.00  0.00     0.262 A 
ATOM      5  N   UNL     1      23.905  68.507  24.881  1.00  0.00    -0.224 NA
ATOM      6  C   UNL     1      23.750  66.554  23.425  1.00  0.00     0.066 A 
ATOM      7  O   UNL     1      22.178  66.677  21.709  1.00  0.00    -0.269 OA
ATOM      8  C   UNL     1      24.304  67.220  24.513  1.00  0.00     0.079 A 
ATOM      9  C   UNL     1      24.163  65.261  23.081  1.00  0.00     0.016 A 
ATOM     10  C   UNL     1      25.288  66.575  25.266  1.00  0.00     0.029 A 
ATOM     11  C   UNL     1      25.145  64.627  23.840  1.00  0.00     0.001 A 
ATOM     12  C   UNL     1      25.709  65.285  24.932  1.00  0.00     0.002 A 
BRANCH   3  13
ATOM     13  C   UNL     1      21.377  69.241  22.252  1.00  0.00     0.125 C 
ATOM     14  C   UNL     1      21.977  70.003  21.077  1.00  0.00     0.028 C 
ENDBRANCH   3  13
ENDBRANCH   1   2
BRANCH   1  15
ATOM     15  C   UNL     1      23.820  71.054  25.910  1.00  0.00     0.177 C 
BRANCH  15  16
ATOM     16  C   UNL     1      23.251  70.900  27.305  1.00  0.00     0.227 C 
ATOM     17  N   UNL     1      23.442  69.679  27.894  1.00  0.00    -0.369 N 
ATOM     18  O   UNL     1      22.689  71.805  27.913  1.00  0.00    -0.274 OA
ATOM     19  H   UNL     1      22.967  69.540  28.778  1.00  0.00     0.159 HD
ATOM     20  H   UNL     1      23.577  68.864  27.310  1.00  0.00     0.159 HD
ENDBRANCH  15  16
ENDBRANCH   1  15
TORSDOF 4
ENDMDL
MODEL 2
REMARK VINA RESULT:    -6.933      1.853      4.214
REMARK INTER + INTRA:          -9.036
REMARK INTER:                  -8.544
REMARK INTRA:                  -0.493
REMARK UNBOUND:                -0.482
REMARK SMILES CCn1c(SCC(N)=O)nc2ccccc2c1=O
REMARK SMILES IDX 5 1 4 2 3 3 17 4 10 5 16 6 18 7 11 8 15 9 12 10 14 11 13 12
REMARK SMILES IDX 2 13 1 14 6 15 7 16 8 17 9 18
REMARK H PARENT 8 19 8 20
ROOT
ATOM      1  S   UNL     1      21.979  70.330  23.524  1.00  0.00    -0.078 SA
ENDROOT
BRANCH   1   2
ATOM      2  C   UNL     1      23.076  69.037  23.974  1.00  0.00     0.171 A 
ATOM      3  N   UNL     1      23.958  69.254  25.022  1.00  0.00    -0.287 N 
ATOM      4  C   UNL     1      24.890  68.274  25.367  1.00  0.00     0.262 A 
ATOM      5  N   UNL     1      23.015  67.944  23.287  1.00  0.00    -0.224 NA
ATOM      6  C   UNL     1      24.830  67.006  24.621  1.00  0.00     0.066 A 
ATOM      7  O   UNL     1      25.747  68.412  26.238  1.00  0.00    -0.269 OA
ATOM      8  C   UNL     1      23.883  66.899  23.609  1.00  0.00     0.079 A 
ATOM      9  C   UNL     1      25.693  65.945  24.920  1.00  0.00     0.016 A 
ATOM     10  C   UNL     1      23.803  65.706  22.886  1.00  0.00     0.029 A 
ATOM     11  C   UNL     1      25.605  64.760  24.193  1.00  0.00     0.001 A 
ATOM     12  C   UNL     1      24.659  64.640  23.176  1.00  0.00     0.002 A 
BRANCH   3  13
ATOM     13  C   UNL     1      24.037  70.505  25.785  1.00  0.00     0.125 C 
ATOM     14  C   UNL     1      23.130  70.482  27.010  1.00  0.00     0.028 C 
ENDBRANCH   3  13
ENDBRANCH   1   2
BRANCH   1  15
ATOM     15  C   UNL     1      21.756  69.948  21.760  1.00  0.00     0.177 C 
BRANCH  15  16
ATOM     16  C   UNL     1      20.374  69.372  21.530  1.00  0.00     0.227 C 
ATOM     17  N   UNL     1      20.278  68.009  21.604  1.00  0.00    -0.369 N 
ATOM     18  O   UNL     1      19.377  70.058  21.333  1.00  0.00    -0.274 OA
ATOM     19  H   UNL     1      19.381  67.618  21.341  1.00  0.00     0.159 HD
ATOM     20  H   UNL     1      21.097  67.444  21.421  1.00  0.00     0.159 HD
ENDBRANCH  15  16
ENDBRANCH   1  15
TORSDOF 4
ENDMDL
MODEL 3
REMARK VINA RESULT:    -6.687      1.981      4.483
REMARK INTER + INTRA:          -8.732
REMARK INTER:                  -8.344
REMARK INTRA:                  -0.388
REMARK UNBOUND:                -0.482
REMARK SMILES CCn1c(SCC(N)=O)nc2ccccc2c1=O
REMARK SMILES IDX 5 1 4 2 3 3 17 4 10 5 16 6 18 7 11 8 15 9 12 10 14 11 13 12
REMARK SMILES IDX 2 13 1 14 6 15 7 16 8 17 9 18
REMARK H PARENT 8 19 8 20
ROOT
ATOM      1  S   UNL     1      21.963  70.548  21.831  1.00  0.00    -0.078 SA
ENDROOT
BRANCH   1   2
ATOM      2  C   UNL     1      22.756  69.793  23.202  1.00  0.00     0.171 A 
ATOM      3  N   UNL     1      22.631  70.389  24.448  1.00  0.00    -0.287 N 
ATOM      4  C   UNL     1      23.301  69.855  25.550  1.00  0.00     0.262 A 
ATOM      5  N   UNL     1      23.437  68.719  22.973  1.00  0.00    -0.224 NA
ATOM      6  C   UNL     1      24.064  68.616  25.329  1.00  0.00     0.066 A 
ATOM      7  O   UNL     1      23.294  70.358  26.672  1.00  0.00    -0.269 OA
ATOM      8  C   UNL     1      24.093  68.100  24.039  1.00  0.00     0.079 A 
ATOM      9  C   UNL     1      24.735  67.979  26.379  1.00  0.00     0.016 A 
ATOM     10  C   UNL     1      24.809  66.924  23.801  1.00  0.00     0.029 A 
ATOM     11  C   UNL     1      25.447  66.806  26.131  1.00  0.00     0.001 A 
ATOM     12  C   UNL     1      25.483  66.278  24.841  1.00  0.00     0.002 A 
BRANCH   3  13
ATOM     13  C   UNL     1      21.872  71.621  24.698  1.00  0.00     0.125 C 
ATOM     14  C   UNL     1      22.721  72.866  24.473  1.00  0.00     0.028 C 
ENDBRANCH   3  13
ENDBRANCH   1   2
BRANCH   1  15
ATOM     15  C   UNL     1      21.796  69.106  20.736  1.00  0.00     0.177 C 
BRANCH  15  16
ATOM     16  C   UNL     1      20.464  68.427  20.980  1.00  0.00     0.227 C 
ATOM     17  N   UNL     1      20.468  67.427  21.915  1.00  0.00    -0.369 N 
ATOM     18  O   UNL     1      19.421  68.758  20.425  1.00  0.00    -0.274 OA
ATOM     19  H   UNL     1      19.607  66.901  21.997  1.00  0.00     0.159 HD
ATOM     20  H   UNL     1      21.330  66.933  22.107  1.00  0.00     0.159 HD
ENDBRANCH  15  16
ENDBRANCH   1  15
TORSDOF 4
ENDMDL
MODEL 4
REMARK VINA RESULT:    -6.437      2.545      4.317
REMARK INTER + INTRA:          -8.424
REMARK INTER:                  -8.311
REMARK INTRA:                  -0.113
REMARK UNBOUND:                -0.482
REMARK SMILES CCn1c(SCC(N)=O)nc2ccccc2c1=O
REMARK SMILES IDX 5 1 4 2 3 3 17 4 10 5 16 6 18 7 11 8 15 9 12 10 14 11 13 12
REMARK SMILES IDX 2 13 1 14 6 15 7 16 8 17 9 18
REMARK H PARENT 8 19 8 20
ROOT
ATOM      1  S   UNL     1      21.871  70.674  22.144  1.00  0.00    -0.078 SA
ENDROOT
BRANCH   1   2
ATOM      2  C   UNL     1      22.704  69.883  23.470  1.00  0.00     0.171 A 
ATOM      3  N   UNL     1      22.620  70.448  24.734  1.00  0.00    -0.287 N 
ATOM      4  C   UNL     1      23.323  69.885  25.801  1.00  0.00     0.262 A 
ATOM      5  N   UNL     1      23.374  68.814  23.193  1.00  0.00    -0.224 NA
ATOM      6  C   UNL     1      24.075  68.650  25.525  1.00  0.00     0.066 A 
ATOM      7  O   UNL     1      23.353  70.359  26.935  1.00  0.00    -0.269 OA
ATOM      8  C   UNL     1      24.062  68.166  24.221  1.00  0.00     0.079 A 
ATOM      9  C   UNL     1      24.777  67.985  26.537  1.00  0.00     0.016 A 
ATOM     10  C   UNL     1      24.766  66.995  23.931  1.00  0.00     0.029 A 
ATOM     11  C   UNL     1      25.477  66.817  26.237  1.00  0.00     0.001 A 
ATOM     12  C   UNL     1      25.470  66.321  24.934  1.00  0.00     0.002 A 
BRANCH   3  13
ATOM     13  C   UNL     1      21.874  71.675  25.039  1.00  0.00     0.125 C 
ATOM     14  C   UNL     1      22.613  72.921  24.568  1.00  0.00     0.028 C 
ENDBRANCH   3  13
ENDBRANCH   1   2
BRANCH   1  15
ATOM     15  C   UNL     1      20.202  69.989  22.373  1.00  0.00     0.177 C 
BRANCH  15  16
ATOM     16  C   UNL     1      19.168  71.080  22.180  1.00  0.00     0.227 C 
ATOM     17  N   UNL     1      17.882  70.653  21.983  1.00  0.00    -0.369 N 
ATOM     18  O   UNL     1      19.426  72.278  22.238  1.00  0.00    -0.274 OA
ATOM     19  H   UNL     1      17.214  71.375  21.745  1.00  0.00     0.159 HD
ATOM     20  H   UNL     1      17.721  69.731  21.600  1.00  0.00     0.159 HD
ENDBRANCH  15  16
ENDBRANCH   1  15
TORSDOF 4
ENDMDL
MODEL 5
REMARK VINA RESULT:    -6.395      2.525      5.029
REMARK INTER + INTRA:          -8.372
REMARK INTER:                  -7.831
REMARK INTRA:                  -0.541
REMARK UNBOUND:                -0.482
REMARK SMILES CCn1c(SCC(N)=O)nc2ccccc2c1=O
REMARK SMILES IDX 5 1 4 2 3 3 17 4 10 5 16 6 18 7 11 8 15 9 12 10 14 11 13 12
REMARK SMILES IDX 2 13 1 14 6 15 7 16 8 17 9 18
REMARK H PARENT 8 19 8 20
ROOT
ATOM      1  S   UNL     1      20.679  68.776  21.159  1.00  0.00    -0.078 SA
ENDROOT
BRANCH   1   2
ATOM      2  C   UNL     1      21.951  68.326  22.280  1.00  0.00     0.171 A 
ATOM      3  N   UNL     1      22.432  69.289  23.155  1.00  0.00    -0.287 N 
ATOM      4  C   UNL     1      23.488  68.987  24.016  1.00  0.00     0.262 A 
ATOM      5  N   UNL     1      22.390  67.112  22.219  1.00  0.00    -0.224 NA
ATOM      6  C   UNL     1      23.993  67.605  23.992  1.00  0.00     0.066 A 
ATOM      7  O   UNL     1      24.014  69.800  24.775  1.00  0.00    -0.269 OA
ATOM      8  C   UNL     1      23.411  66.723  23.088  1.00  0.00     0.079 A 
ATOM      9  C   UNL     1      25.021  67.191  24.847  1.00  0.00     0.016 A 
ATOM     10  C   UNL     1      23.871  65.404  23.044  1.00  0.00     0.029 A 
ATOM     11  C   UNL     1      25.472  65.873  24.795  1.00  0.00     0.001 A 
ATOM     12  C   UNL     1      24.896  64.979  23.894  1.00  0.00     0.002 A 
BRANCH   3  13
ATOM     13  C   UNL     1      21.944  70.672  23.205  1.00  0.00     0.125 C 
ATOM     14  C   UNL     1      20.801  70.836  24.199  1.00  0.00     0.028 C 
ENDBRANCH   3  13
ENDBRANCH   1   2
BRANCH   1  15
ATOM     15  C   UNL     1      21.642  68.875  19.620  1.00  0.00     0.177 C 
BRANCH  15  16
ATOM     16  C   UNL     1      21.312  67.694  18.731  1.00  0.00     0.227 C 
ATOM     17  N   UNL     1      21.939  66.518  19.046  1.00  0.00    -0.369 N 
ATOM     18  O   UNL     1      20.506  67.743  17.807  1.00  0.00    -0.274 OA
ATOM     19  H   UNL     1      21.805  65.761  18.388  1.00  0.00     0.159 HD
ATOM     20  H   UNL     1      22.818  66.545  19.545  1.00  0.00     0.159 HD
ENDBRANCH  15  16
ENDBRANCH   1  15
TORSDOF 4
ENDMDL
MODEL 6
REMARK VINA RESULT:    -6.391      2.605      3.046
REMARK INTER + INTRA:          -8.367
REMARK INTER:                  -8.121
REMARK INTRA:                  -0.246
REMARK UNBOUND:                -0.482
REMARK SMILES CCn1c(SCC(N)=O)nc2ccccc2c1=O
REMARK SMILES IDX 5 1 4 2 3 3 17 4 10 5 16 6 18 7 11 8 15 9 12 10 14 11 13 12
REMARK SMILES IDX 2 13 1 14 6 15 7 16 8 17 9 18
REMARK H PARENT 8 19 8 20
ROOT
ATOM      1  S   UNL     1      20.702  71.643  24.019  1.00  0.00    -0.078 SA
ENDROOT
BRANCH   1   2
ATOM      2  C   UNL     1      21.806  70.279  23.994  1.00  0.00     0.171 A 
ATOM      3  N   UNL     1      21.658  69.329  22.995  1.00  0.00    -0.287 N 
ATOM      4  C   UNL     1      22.474  68.196  22.980  1.00  0.00     0.262 A 
ATOM      5  N   UNL     1      22.697  70.223  24.928  1.00  0.00    -0.224 NA
ATOM      6  C   UNL     1      23.518  68.114  24.014  1.00  0.00     0.066 A 
ATOM      7  O   UNL     1      22.366  67.278  22.169  1.00  0.00    -0.269 OA
ATOM      8  C   UNL     1      23.582  69.143  24.946  1.00  0.00     0.079 A 
ATOM      9  C   UNL     1      24.414  67.039  24.059  1.00  0.00     0.016 A 
ATOM     10  C   UNL     1      24.564  69.091  25.939  1.00  0.00     0.029 A 
ATOM     11  C   UNL     1      25.390  66.997  25.053  1.00  0.00     0.001 A 
ATOM     12  C   UNL     1      25.466  68.024  25.993  1.00  0.00     0.002 A 
BRANCH   3  13
ATOM     13  C   UNL     1      20.630  69.388  21.948  1.00  0.00     0.125 C 
ATOM     14  C   UNL     1      21.143  70.070  20.686  1.00  0.00     0.028 C 
ENDBRANCH   3  13
ENDBRANCH   1   2
BRANCH   1  15
ATOM     15  C   UNL     1      21.882  73.003  23.766  1.00  0.00     0.177 C 
BRANCH  15  16
ATOM     16  C   UNL     1      21.208  74.329  24.053  1.00  0.00     0.227 C 
ATOM     17  N   UNL     1      20.096  74.606  23.303  1.00  0.00    -0.369 N 
ATOM     18  O   UNL     1      21.582  75.106  24.925  1.00  0.00    -0.274 OA
ATOM     19  H   UNL     1      19.713  75.536  23.417  1.00  0.00     0.159 HD
ATOM     20  H   UNL     1      19.991  74.172  22.396  1.00  0.00     0.159 HD
ENDBRANCH  15  16
ENDBRANCH   1  15
TORSDOF 4
ENDMDL
MODEL 7
REMARK VINA RESULT:    -6.376      3.160      4.992
REMARK INTER + INTRA:          -8.348
REMARK INTER:                  -7.903
REMARK INTRA:                  -0.445
REMARK UNBOUND:                -0.482
REMARK SMILES CCn1c(SCC(N)=O)nc2ccccc2c1=O
REMARK SMILES IDX 5 1 4 2 3 3 17 4 10 5 16 6 18 7 11 8 15 9 12 10 14 11 13 12
REMARK SMILES IDX 2 13 1 14 6 15 7 16 8 17 9 18
REMARK H PARENT 8 19 8 20
ROOT
ATOM      1  S   UNL     1      21.814  66.287  21.167  1.00  0.00    -0.078 SA
ENDROOT
BRANCH   1   2
ATOM      2  C   UNL     1      22.935  66.475  22.504  1.00  0.00     0.171 A 
ATOM      3  N   UNL     1      23.648  65.364  22.929  1.00  0.00    -0.287 N 
ATOM      4  C   UNL     1      24.500  65.458  24.031  1.00  0.00     0.262 A 
ATOM      5  N   UNL     1      23.025  67.648  23.039  1.00  0.00    -0.224 NA
ATOM      6  C   UNL     1      24.647  66.787  24.647  1.00  0.00     0.066 A 
ATOM      7  O   UNL     1      25.117  64.508  24.510  1.00  0.00    -0.269 OA
ATOM      8  C   UNL     1      23.898  67.830  24.114  1.00  0.00     0.079 A 
ATOM      9  C   UNL     1      25.510  66.995  25.729  1.00  0.00     0.016 A 
ATOM     10  C   UNL     1      24.019  69.102  24.678  1.00  0.00     0.029 A 
ATOM     11  C   UNL     1      25.623  68.268  26.285  1.00  0.00     0.001 A 
ATOM     12  C   UNL     1      24.878  69.322  25.759  1.00  0.00     0.002 A 
BRANCH   3  13
ATOM     13  C   UNL     1      23.525  64.029  22.330  1.00  0.00     0.125 C 
ATOM     14  C   UNL     1      24.708  63.700  21.428  1.00  0.00     0.028 C 
ENDBRANCH   3  13
ENDBRANCH   1   2
BRANCH   1  15
ATOM     15  C   UNL     1      21.727  68.009  20.590  1.00  0.00     0.177 C 
BRANCH  15  16
ATOM     16  C   UNL     1      20.364  68.589  20.906  1.00  0.00     0.227 C 
ATOM     17  N   UNL     1      20.106  68.813  22.232  1.00  0.00    -0.369 N 
ATOM     18  O   UNL     1      19.540  68.892  20.050  1.00  0.00    -0.274 OA
ATOM     19  H   UNL     1      19.159  69.095  22.452  1.00  0.00     0.159 HD
ATOM     20  H   UNL     1      20.599  68.272  22.930  1.00  0.00     0.159 HD
ENDBRANCH  15  16
ENDBRANCH   1  15
TORSDOF 4
ENDMDL
MODEL 8
REMARK VINA RESULT:    -6.299      2.544      6.124
REMARK INTER + INTRA:          -8.254
REMARK INTER:                  -8.057
REMARK INTRA:                  -0.197
REMARK UNBOUND:                -0.482
REMARK SMILES CCn1c(SCC(N)=O)nc2ccccc2c1=O
REMARK SMILES IDX 5 1 4 2 3 3 17 4 10 5 16 6 18 7 11 8 15 9 12 10 14 11 13 12
REMARK SMILES IDX 2 13 1 14 6 15 7 16 8 17 9 18
REMARK H PARENT 8 19 8 20
ROOT
ATOM      1  S   UNL     1      25.384  65.472  24.203  1.00  0.00    -0.078 SA
ENDROOT
BRANCH   1   2
ATOM      2  C   UNL     1      24.407  66.929  24.153  1.00  0.00     0.171 A 
ATOM      3  N   UNL     1      24.703  67.953  25.040  1.00  0.00    -0.287 N 
ATOM      4  C   UNL     1      23.908  69.100  25.075  1.00  0.00     0.262 A 
ATOM      5  N   UNL     1      23.442  66.964  23.294  1.00  0.00    -0.224 NA
ATOM      6  C   UNL     1      22.816  69.184  24.092  1.00  0.00     0.066 A 
ATOM      7  O   UNL     1      24.063  70.023  25.873  1.00  0.00    -0.269 OA
ATOM      8  C   UNL     1      22.636  68.102  23.237  1.00  0.00     0.079 A 
ATOM      9  C   UNL     1      21.990  70.311  24.018  1.00  0.00     0.016 A 
ATOM     10  C   UNL     1      21.607  68.156  22.293  1.00  0.00     0.029 A 
ATOM     11  C   UNL     1      20.967  70.354  23.072  1.00  0.00     0.001 A 
ATOM     12  C   UNL     1      20.776  69.276  22.209  1.00  0.00     0.002 A 
BRANCH   3  13
ATOM     13  C   UNL     1      25.788  67.898  26.027  1.00  0.00     0.125 C 
ATOM     14  C   UNL     1      25.313  67.342  27.364  1.00  0.00     0.028 C 
ENDBRANCH   3  13
ENDBRANCH   1   2
BRANCH   1  15
ATOM     15  C   UNL     1      24.156  64.255  23.642  1.00  0.00     0.177 C 
BRANCH  15  16
ATOM     16  C   UNL     1      24.406  63.904  22.190  1.00  0.00     0.227 C 
ATOM     17  N   UNL     1      25.710  63.660  21.852  1.00  0.00    -0.369 N 
ATOM     18  O   UNL     1      23.514  63.792  21.355  1.00  0.00    -0.274 OA
ATOM     19  H   UNL     1      25.890  63.535  20.864  1.00  0.00     0.159 HD
ATOM     20  H   UNL     1      26.449  64.070  22.407  1.00  0.00     0.159 HD
ENDBRANCH  15  16
ENDBRANCH   1  15
TORSDOF 4
ENDMDL
MODEL 9
REMARK VINA RESULT:    -5.913      9.891     11.658
REMARK INTER + INTRA:          -7.777
REMARK INTER:                  -7.357
REMARK INTRA:                  -0.421
REMARK UNBOUND:                -0.482
REMARK SMILES CCn1c(SCC(N)=O)nc2ccccc2c1=O
REMARK SMILES IDX 5 1 4 2 3 3 17 4 10 5 16 6 18 7 11 8 15 9 12 10 14 11 13 12
REMARK SMILES IDX 2 13 1 14 6 15 7 16 8 17 9 18
REMARK H PARENT 8 19 8 20
ROOT
ATOM      1  S   UNL     1      17.002  77.596  21.002  1.00  0.00    -0.078 SA
ENDROOT
BRANCH   1   2
ATOM      2  C   UNL     1      17.778  77.799  22.562  1.00  0.00     0.171 A 
ATOM      3  N   UNL     1      17.165  78.610  23.504  1.00  0.00    -0.287 N 
ATOM      4  C   UNL     1      17.785  78.849  24.732  1.00  0.00     0.262 A 
ATOM      5  N   UNL     1      18.902  77.188  22.746  1.00  0.00    -0.224 NA
ATOM      6  C   UNL     1      19.054  78.147  24.985  1.00  0.00     0.066 A 
ATOM      7  O   UNL     1      17.341  79.604  25.595  1.00  0.00    -0.269 OA
ATOM      8  C   UNL     1      19.555  77.339  23.971  1.00  0.00     0.079 A 
ATOM      9  C   UNL     1      19.732  78.286  26.202  1.00  0.00     0.016 A 
ATOM     10  C   UNL     1      20.758  76.660  24.184  1.00  0.00     0.029 A 
ATOM     11  C   UNL     1      20.930  77.604  26.404  1.00  0.00     0.001 A 
ATOM     12  C   UNL     1      21.443  76.790  25.396  1.00  0.00     0.002 A 
BRANCH   3  13
ATOM     13  C   UNL     1      15.899  79.318  23.281  1.00  0.00     0.125 C 
ATOM     14  C   UNL     1      14.733  78.630  23.981  1.00  0.00     0.028 C 
ENDBRANCH   3  13
ENDBRANCH   1   2
BRANCH   1  15
ATOM     15  C   UNL     1      16.654  75.812  21.056  1.00  0.00     0.177 C 
BRANCH  15  16
ATOM     16  C   UNL     1      15.589  75.527  22.095  1.00  0.00     0.227 C 
ATOM     17  N   UNL     1      16.024  74.921  23.243  1.00  0.00    -0.369 N 
ATOM     18  O   UNL     1      14.412  75.847  21.965  1.00  0.00    -0.274 OA
ATOM     19  H   UNL     1      15.298  74.632  23.886  1.00  0.00     0.159 HD
ATOM     20  H   UNL     1      16.868  74.364  23.218  1.00  0.00     0.159 HD
ENDBRANCH  15  16
ENDBRANCH   1  15
TORSDOF 4
ENDMDL
MODEL 10
REMARK VINA RESULT:    -5.780      3.299      4.636
REMARK INTER + INTRA:          -7.614
REMARK INTER:                  -7.362
REMARK INTRA:                  -0.252
REMARK UNBOUND:                -0.482
REMARK SMILES CCn1c(SCC(N)=O)nc2ccccc2c1=O
REMARK SMILES IDX 5 1 4 2 3 3 17 4 10 5 16 6 18 7 11 8 15 9 12 10 14 11 13 12
REMARK SMILES IDX 2 13 1 14 6 15 7 16 8 17 9 18
REMARK H PARENT 8 19 8 20
ROOT
ATOM      1  S   UNL     1      19.752  71.050  21.660  1.00  0.00    -0.078 SA
ENDROOT
BRANCH   1   2
ATOM      2  C   UNL     1      21.065  70.273  22.526  1.00  0.00     0.171 A 
ATOM      3  N   UNL     1      21.426  68.985  22.161  1.00  0.00    -0.287 N 
ATOM      4  C   UNL     1      22.421  68.309  22.870  1.00  0.00     0.262 A 
ATOM      5  N   UNL     1      21.620  70.943  23.482  1.00  0.00    -0.224 NA
ATOM      6  C   UNL     1      23.093  69.054  23.947  1.00  0.00     0.066 A 
ATOM      7  O   UNL     1      22.755  67.146  22.652  1.00  0.00    -0.269 OA
ATOM      8  C   UNL     1      22.658  70.349  24.203  1.00  0.00     0.079 A 
ATOM      9  C   UNL     1      24.132  68.479  24.689  1.00  0.00     0.016 A 
ATOM     10  C   UNL     1      23.279  71.079  25.219  1.00  0.00     0.029 A 
ATOM     11  C   UNL     1      24.745  69.216  25.701  1.00  0.00     0.001 A 
ATOM     12  C   UNL     1      24.319  70.517  25.966  1.00  0.00     0.002 A 
BRANCH   3  13
ATOM     13  C   UNL     1      20.777  68.222  21.088  1.00  0.00     0.125 C 
ATOM     14  C   UNL     1      21.530  68.343  19.769  1.00  0.00     0.028 C 
ENDBRANCH   3  13
ENDBRANCH   1   2
BRANCH   1  15
ATOM     15  C   UNL     1      19.785  72.688  22.448  1.00  0.00     0.177 C 
BRANCH  15  16
ATOM     16  C   UNL     1      18.473  73.404  22.202  1.00  0.00     0.227 C 
ATOM     17  N   UNL     1      17.397  72.934  22.906  1.00  0.00    -0.369 N 
ATOM     18  O   UNL     1      18.358  74.374  21.461  1.00  0.00    -0.274 OA
ATOM     19  H   UNL     1      16.502  73.338  22.659  1.00  0.00     0.159 HD
ATOM     20  H   UNL     1      17.397  71.974  23.226  1.00  0.00     0.159 HD
ENDBRANCH  15  16
ENDBRANCH   1  15
TORSDOF 4
ENDMDL
