MODEL 1
REMARK VINA RESULT:    -9.929      0.000      0.000
REMARK INTER + INTRA:         -10.847
REMARK INTER:                 -11.090
REMARK INTRA:                   0.243
REMARK UNBOUND:                 0.243
REMARK SMILES Clc1ccccc1-c1ccc2ncnc(N3CC[NH2+]CC3)c2c1
REMARK SMILES IDX 8 1 9 2 10 3 11 4 12 5 13 6 14 7 15 8 22 9 23 10 7 11 2 12
REMARK SMILES IDX 3 13 4 14 6 15 5 16 1 17 16 18 17 19 21 20 18 21 20 22 19 23
REMARK H PARENT 19 24 19 25
ROOT
ATOM      1  C   UNL     1      23.983  68.695  24.927  1.00  0.00    -0.016 A 
ATOM      2  C   UNL     1      24.613  69.663  25.714  1.00  0.00     0.011 A 
ATOM      3  C   UNL     1      24.071  70.948  25.834  1.00  0.00     0.030 A 
ATOM      4  C   UNL     1      22.907  71.317  25.175  1.00  0.00     0.076 A 
ATOM      5  N   UNL     1      22.442  72.562  25.324  1.00  0.00    -0.236 NA
ATOM      6  C   UNL     1      21.325  72.880  24.668  1.00  0.00     0.224 A 
ATOM      7  N   UNL     1      20.638  72.083  23.829  1.00  0.00    -0.219 NA
ATOM      8  C   UNL     1      21.108  70.819  23.712  1.00  0.00     0.140 A 
ATOM      9  C   UNL     1      22.265  70.369  24.374  1.00  0.00     0.043 A 
ATOM     10  C   UNL     1      22.795  69.058  24.278  1.00  0.00     0.023 A 
ENDROOT
BRANCH   1  11
ATOM     11  C   UNL     1      24.544  67.341  24.790  1.00  0.00     0.000 A 
ATOM     12  C   UNL     1      25.223  66.679  25.834  1.00  0.00     0.048 A 
ATOM     13  C   UNL     1      25.739  65.391  25.652  1.00  0.00     0.021 A 
ATOM     14  C   UNL     1      25.587  64.740  24.429  1.00  0.00     0.002 A 
ATOM     15  C   UNL     1      24.403  66.660  23.566  1.00  0.00     0.010 A 
ATOM     16  C   UNL     1      24.919  65.374  23.386  1.00  0.00     0.001 A 
ATOM     17  Cl  UNL     1      25.441  67.405  27.394  1.00  0.00    -0.084 Cl
ENDBRANCH   1  11
BRANCH   8  18
ATOM     18  N   UNL     1      20.424  69.954  22.822  1.00  0.00    -0.345 N 
ATOM     19  C   UNL     1      19.219  70.558  22.202  1.00  0.00     0.179 C 
ATOM     20  C   UNL     1      21.357  69.333  21.851  1.00  0.00     0.179 C 
ATOM     21  C   UNL     1      19.501  71.208  20.827  1.00  0.00     0.282 C 
ATOM     22  C   UNL     1      21.852  70.332  20.774  1.00  0.00     0.282 C 
ATOM     23  N   UNL     1      20.956  71.539  20.695  1.00  0.00    -0.343 N 
ATOM     24  H   UNL     1      21.161  72.125  19.880  1.00  0.00     0.346 HD
ATOM     25  H   UNL     1      21.174  72.099  21.543  1.00  0.00     0.346 HD
ENDBRANCH   8  18
TORSDOF 2
ENDMDL
MODEL 2
REMARK VINA RESULT:    -8.934      1.226      1.572
REMARK INTER + INTRA:          -9.736
REMARK INTER:                 -10.128
REMARK INTRA:                   0.392
REMARK UNBOUND:                 0.243
REMARK SMILES Clc1ccccc1-c1ccc2ncnc(N3CC[NH2+]CC3)c2c1
REMARK SMILES IDX 8 1 9 2 10 3 11 4 12 5 13 6 14 7 15 8 22 9 23 10 7 11 2 12
REMARK SMILES IDX 3 13 4 14 6 15 5 16 1 17 16 18 17 19 21 20 18 21 20 22 19 23
REMARK H PARENT 19 24 19 25
ROOT
ATOM      1  C   UNL     1      23.809  68.617  24.776  1.00  0.00    -0.016 A 
ATOM      2  C   UNL     1      24.450  69.583  25.558  1.00  0.00     0.011 A 
ATOM      3  C   UNL     1      23.926  70.877  25.665  1.00  0.00     0.030 A 
ATOM      4  C   UNL     1      22.769  71.257  24.998  1.00  0.00     0.076 A 
ATOM      5  N   UNL     1      22.321  72.509  25.136  1.00  0.00    -0.236 NA
ATOM      6  C   UNL     1      21.211  72.837  24.473  1.00  0.00     0.224 A 
ATOM      7  N   UNL     1      20.517  72.043  23.638  1.00  0.00    -0.219 NA
ATOM      8  C   UNL     1      20.968  70.771  23.533  1.00  0.00     0.140 A 
ATOM      9  C   UNL     1      22.117  70.311  24.203  1.00  0.00     0.043 A 
ATOM     10  C   UNL     1      22.629  68.991  24.120  1.00  0.00     0.023 A 
ENDROOT
BRANCH   1  11
ATOM     11  C   UNL     1      24.351  67.255  24.653  1.00  0.00     0.000 A 
ATOM     12  C   UNL     1      23.981  66.367  23.622  1.00  0.00     0.048 A 
ATOM     13  C   UNL     1      24.527  65.080  23.550  1.00  0.00     0.021 A 
ATOM     14  C   UNL     1      25.450  64.655  24.503  1.00  0.00     0.002 A 
ATOM     15  C   UNL     1      25.288  66.801  25.602  1.00  0.00     0.010 A 
ATOM     16  C   UNL     1      25.831  65.516  25.529  1.00  0.00     0.001 A 
ATOM     17  Cl  UNL     1      22.854  66.818  22.382  1.00  0.00    -0.084 Cl
ENDBRANCH   1  11
BRANCH   8  18
ATOM     18  N   UNL     1      20.275  69.908  22.648  1.00  0.00    -0.345 N 
ATOM     19  C   UNL     1      18.960  70.431  22.203  1.00  0.00     0.179 C 
ATOM     20  C   UNL     1      21.152  69.457  21.540  1.00  0.00     0.179 C 
ATOM     21  C   UNL     1      19.031  71.204  20.866  1.00  0.00     0.282 C 
ATOM     22  C   UNL     1      21.433  70.576  20.505  1.00  0.00     0.282 C 
ATOM     23  N   UNL     1      20.426  71.689  20.616  1.00  0.00    -0.343 N 
ATOM     24  H   UNL     1      20.486  72.351  19.836  1.00  0.00     0.346 HD
ATOM     25  H   UNL     1      20.681  72.205  21.482  1.00  0.00     0.346 HD
ENDBRANCH   8  18
TORSDOF 2
ENDMDL
MODEL 3
REMARK VINA RESULT:    -8.923      2.139      2.887
REMARK INTER + INTRA:          -9.724
REMARK INTER:                 -10.038
REMARK INTRA:                   0.315
REMARK UNBOUND:                 0.243
REMARK SMILES Clc1ccccc1-c1ccc2ncnc(N3CC[NH2+]CC3)c2c1
REMARK SMILES IDX 8 1 9 2 10 3 11 4 12 5 13 6 14 7 15 8 22 9 23 10 7 11 2 12
REMARK SMILES IDX 3 13 4 14 6 15 5 16 1 17 16 18 17 19 21 20 18 21 20 22 19 23
REMARK H PARENT 19 24 19 25
ROOT
ATOM      1  C   UNL     1      23.874  67.148  23.830  1.00  0.00    -0.016 A 
ATOM      2  C   UNL     1      24.851  67.285  24.820  1.00  0.00     0.011 A 
ATOM      3  C   UNL     1      24.880  68.418  25.642  1.00  0.00     0.030 A 
ATOM      4  C   UNL     1      23.959  69.448  25.504  1.00  0.00     0.076 A 
ATOM      5  N   UNL     1      24.042  70.507  26.315  1.00  0.00    -0.236 NA
ATOM      6  C   UNL     1      23.144  71.478  26.145  1.00  0.00     0.224 A 
ATOM      7  N   UNL     1      22.184  71.522  25.203  1.00  0.00    -0.219 NA
ATOM      8  C   UNL     1      22.098  70.429  24.409  1.00  0.00     0.140 A 
ATOM      9  C   UNL     1      22.979  69.337  24.514  1.00  0.00     0.043 A 
ATOM     10  C   UNL     1      22.930  68.176  23.702  1.00  0.00     0.023 A 
ENDROOT
BRANCH   1  11
ATOM     11  C   UNL     1      23.836  65.964  22.957  1.00  0.00     0.000 A 
ATOM     12  C   UNL     1      22.805  65.727  22.023  1.00  0.00     0.048 A 
ATOM     13  C   UNL     1      22.815  64.583  21.217  1.00  0.00     0.021 A 
ATOM     14  C   UNL     1      23.851  63.656  21.325  1.00  0.00     0.002 A 
ATOM     15  C   UNL     1      24.871  65.013  23.044  1.00  0.00     0.010 A 
ATOM     16  C   UNL     1      24.879  63.872  22.238  1.00  0.00     0.001 A 
ATOM     17  Cl  UNL     1      21.488  66.835  21.808  1.00  0.00    -0.084 Cl
ENDBRANCH   1  11
BRANCH   8  18
ATOM     18  N   UNL     1      21.113  70.444  23.391  1.00  0.00    -0.345 N 
ATOM     19  C   UNL     1      20.102  71.520  23.546  1.00  0.00     0.179 C 
ATOM     20  C   UNL     1      21.729  70.385  22.043  1.00  0.00     0.179 C 
ATOM     21  C   UNL     1      20.455  72.806  22.764  1.00  0.00     0.282 C 
ATOM     22  C   UNL     1      22.416  71.715  21.640  1.00  0.00     0.282 C 
ATOM     23  N   UNL     1      21.926  72.860  22.484  1.00  0.00    -0.343 N 
ATOM     24  H   UNL     1      22.232  73.770  22.125  1.00  0.00     0.346 HD
ATOM     25  H   UNL     1      22.373  72.727  23.414  1.00  0.00     0.346 HD
ENDBRANCH   8  18
TORSDOF 2
ENDMDL
MODEL 4
REMARK VINA RESULT:    -8.690      6.761      9.088
REMARK INTER + INTRA:          -9.464
REMARK INTER:                  -9.111
REMARK INTRA:                  -0.353
REMARK UNBOUND:                 0.243
REMARK SMILES Clc1ccccc1-c1ccc2ncnc(N3CC[NH2+]CC3)c2c1
REMARK SMILES IDX 8 1 9 2 10 3 11 4 12 5 13 6 14 7 15 8 22 9 23 10 7 11 2 12
REMARK SMILES IDX 3 13 4 14 6 15 5 16 1 17 16 18 17 19 21 20 18 21 20 22 19 23
REMARK H PARENT 19 24 19 25
ROOT
ATOM      1  C   UNL     1      20.399  77.010  24.499  1.00  0.00    -0.016 A 
ATOM      2  C   UNL     1      20.437  77.891  25.583  1.00  0.00     0.011 A 
ATOM      3  C   UNL     1      19.285  78.580  25.983  1.00  0.00     0.030 A 
ATOM      4  C   UNL     1      18.075  78.430  25.321  1.00  0.00     0.076 A 
ATOM      5  N   UNL     1      17.011  79.120  25.746  1.00  0.00    -0.236 NA
ATOM      6  C   UNL     1      15.869  78.954  25.079  1.00  0.00     0.224 A 
ATOM      7  N   UNL     1      15.687  78.192  23.985  1.00  0.00    -0.219 NA
ATOM      8  C   UNL     1      16.767  77.480  23.585  1.00  0.00     0.140 A 
ATOM      9  C   UNL     1      18.016  77.561  24.227  1.00  0.00     0.043 A 
ATOM     10  C   UNL     1      19.173  76.839  23.842  1.00  0.00     0.023 A 
ENDROOT
BRANCH   1  11
ATOM     11  C   UNL     1      21.604  76.282  24.067  1.00  0.00     0.000 A 
ATOM     12  C   UNL     1      22.778  76.927  23.626  1.00  0.00     0.048 A 
ATOM     13  C   UNL     1      23.897  76.188  23.225  1.00  0.00     0.021 A 
ATOM     14  C   UNL     1      23.866  74.795  23.257  1.00  0.00     0.002 A 
ATOM     15  C   UNL     1      21.600  74.874  24.091  1.00  0.00     0.010 A 
ATOM     16  C   UNL     1      22.719  74.138  23.690  1.00  0.00     0.001 A 
ATOM     17  Cl  UNL     1      22.911  78.656  23.572  1.00  0.00    -0.084 Cl
ENDBRANCH   1  11
BRANCH   8  18
ATOM     18  N   UNL     1      16.622  76.680  22.425  1.00  0.00    -0.345 N 
ATOM     19  C   UNL     1      15.221  76.284  22.136  1.00  0.00     0.179 C 
ATOM     20  C   UNL     1      17.330  77.277  21.267  1.00  0.00     0.179 C 
ATOM     21  C   UNL     1      14.503  77.245  21.160  1.00  0.00     0.282 C 
ATOM     22  C   UNL     1      16.610  78.530  20.705  1.00  0.00     0.282 C 
ATOM     23  N   UNL     1      15.176  78.583  21.157  1.00  0.00    -0.343 N 
ATOM     24  H   UNL     1      14.637  79.301  20.663  1.00  0.00     0.346 HD
ATOM     25  H   UNL     1      15.214  78.859  22.159  1.00  0.00     0.346 HD
ENDBRANCH   8  18
TORSDOF 2
ENDMDL
MODEL 5
REMARK VINA RESULT:    -8.594      1.306      1.776
REMARK INTER + INTRA:          -9.357
REMARK INTER:                  -9.234
REMARK INTRA:                  -0.123
REMARK UNBOUND:                 0.243
REMARK SMILES Clc1ccccc1-c1ccc2ncnc(N3CC[NH2+]CC3)c2c1
REMARK SMILES IDX 8 1 9 2 10 3 11 4 12 5 13 6 14 7 15 8 22 9 23 10 7 11 2 12
REMARK SMILES IDX 3 13 4 14 6 15 5 16 1 17 16 18 17 19 21 20 18 21 20 22 19 23
REMARK H PARENT 19 24 19 25
ROOT
ATOM      1  C   UNL     1      23.109  70.058  24.608  1.00  0.00    -0.016 A 
ATOM      2  C   UNL     1      23.462  71.268  25.212  1.00  0.00     0.011 A 
ATOM      3  C   UNL     1      22.735  72.436  24.949  1.00  0.00     0.030 A 
ATOM      4  C   UNL     1      21.655  72.446  24.078  1.00  0.00     0.076 A 
ATOM      5  N   UNL     1      21.004  73.594  23.863  1.00  0.00    -0.236 NA
ATOM      6  C   UNL     1      19.977  73.563  23.013  1.00  0.00     0.224 A 
ATOM      7  N   UNL     1      19.554  72.497  22.310  1.00  0.00    -0.219 NA
ATOM      8  C   UNL     1      20.206  71.338  22.562  1.00  0.00     0.140 A 
ATOM      9  C   UNL     1      21.290  71.250  23.454  1.00  0.00     0.043 A 
ATOM     10  C   UNL     1      22.005  70.060  23.745  1.00  0.00     0.023 A 
ENDROOT
BRANCH   1  11
ATOM     11  C   UNL     1      23.867  68.825  24.874  1.00  0.00     0.000 A 
ATOM     12  C   UNL     1      24.170  68.371  26.175  1.00  0.00     0.048 A 
ATOM     13  C   UNL     1      24.896  67.191  26.373  1.00  0.00     0.021 A 
ATOM     14  C   UNL     1      25.330  66.442  25.281  1.00  0.00     0.002 A 
ATOM     15  C   UNL     1      24.317  68.048  23.789  1.00  0.00     0.010 A 
ATOM     16  C   UNL     1      25.041  66.870  23.990  1.00  0.00     0.001 A 
ATOM     17  Cl  UNL     1      23.653  69.229  27.591  1.00  0.00    -0.084 Cl
ENDBRANCH   1  11
BRANCH   8  18
ATOM     18  N   UNL     1      19.803  70.195  21.827  1.00  0.00    -0.345 N 
ATOM     19  C   UNL     1      18.547  70.384  21.060  1.00  0.00     0.179 C 
ATOM     20  C   UNL     1      20.924  69.648  21.025  1.00  0.00     0.179 C 
ATOM     21  C   UNL     1      18.786  70.830  19.598  1.00  0.00     0.282 C 
ATOM     22  C   UNL     1      21.269  70.530  19.798  1.00  0.00     0.282 C 
ATOM     23  N   UNL     1      20.137  71.462  19.459  1.00  0.00    -0.343 N 
ATOM     24  H   UNL     1      20.270  71.927  18.557  1.00  0.00     0.346 HD
ATOM     25  H   UNL     1      20.157  72.197  20.194  1.00  0.00     0.346 HD
ENDBRANCH   8  18
TORSDOF 2
ENDMDL
MODEL 6
REMARK VINA RESULT:    -8.472      1.486      3.510
REMARK INTER + INTRA:          -9.220
REMARK INTER:                  -9.282
REMARK INTRA:                   0.062
REMARK UNBOUND:                 0.243
REMARK SMILES Clc1ccccc1-c1ccc2ncnc(N3CC[NH2+]CC3)c2c1
REMARK SMILES IDX 8 1 9 2 10 3 11 4 12 5 13 6 14 7 15 8 22 9 23 10 7 11 2 12
REMARK SMILES IDX 3 13 4 14 6 15 5 16 1 17 16 18 17 19 21 20 18 21 20 22 19 23
REMARK H PARENT 19 24 19 25
ROOT
ATOM      1  C   UNL     1      23.128  67.359  22.941  1.00  0.00    -0.016 A 
ATOM      2  C   UNL     1      22.361  66.591  22.060  1.00  0.00     0.011 A 
ATOM      3  C   UNL     1      21.431  67.198  21.208  1.00  0.00     0.030 A 
ATOM      4  C   UNL     1      21.222  68.570  21.210  1.00  0.00     0.076 A 
ATOM      5  N   UNL     1      20.315  69.091  20.377  1.00  0.00    -0.236 NA
ATOM      6  C   UNL     1      20.138  70.412  20.415  1.00  0.00     0.224 A 
ATOM      7  N   UNL     1      20.751  71.276  21.244  1.00  0.00    -0.219 NA
ATOM      8  C   UNL     1      21.686  70.735  22.060  1.00  0.00     0.140 A 
ATOM      9  C   UNL     1      21.970  69.358  22.090  1.00  0.00     0.043 A 
ATOM     10  C   UNL     1      22.935  68.747  22.930  1.00  0.00     0.023 A 
ENDROOT
BRANCH   1  11
ATOM     11  C   UNL     1      24.107  66.732  23.844  1.00  0.00     0.000 A 
ATOM     12  C   UNL     1      24.403  67.234  25.129  1.00  0.00     0.048 A 
ATOM     13  C   UNL     1      25.344  66.600  25.948  1.00  0.00     0.021 A 
ATOM     14  C   UNL     1      26.004  65.456  25.504  1.00  0.00     0.002 A 
ATOM     15  C   UNL     1      24.787  65.574  23.421  1.00  0.00     0.010 A 
ATOM     16  C   UNL     1      25.726  64.943  24.241  1.00  0.00     0.001 A 
ATOM     17  Cl  UNL     1      23.615  68.640  25.770  1.00  0.00    -0.084 Cl
ENDBRANCH   1  11
BRANCH   8  18
ATOM     18  N   UNL     1      22.341  71.609  22.963  1.00  0.00    -0.345 N 
ATOM     19  C   UNL     1      22.225  73.044  22.605  1.00  0.00     0.179 C 
ATOM     20  C   UNL     1      21.974  71.306  24.368  1.00  0.00     0.179 C 
ATOM     21  C   UNL     1      21.038  73.753  23.298  1.00  0.00     0.282 C 
ATOM     22  C   UNL     1      20.530  71.747  24.718  1.00  0.00     0.282 C 
ATOM     23  N   UNL     1      20.009  72.751  23.725  1.00  0.00    -0.343 N 
ATOM     24  H   UNL     1      19.132  73.183  24.029  1.00  0.00     0.346 HD
ATOM     25  H   UNL     1      19.804  72.205  22.864  1.00  0.00     0.346 HD
ENDBRANCH   8  18
TORSDOF 2
ENDMDL
MODEL 7
REMARK VINA RESULT:    -8.423      3.265      6.413
REMARK INTER + INTRA:          -9.165
REMARK INTER:                  -8.667
REMARK INTRA:                  -0.498
REMARK UNBOUND:                 0.243
REMARK SMILES Clc1ccccc1-c1ccc2ncnc(N3CC[NH2+]CC3)c2c1
REMARK SMILES IDX 8 1 9 2 10 3 11 4 12 5 13 6 14 7 15 8 22 9 23 10 7 11 2 12
REMARK SMILES IDX 3 13 4 14 6 15 5 16 1 17 16 18 17 19 21 20 18 21 20 22 19 23
REMARK H PARENT 19 24 19 25
ROOT
ATOM      1  C   UNL     1      22.349  73.207  23.963  1.00  0.00    -0.016 A 
ATOM      2  C   UNL     1      22.798  72.506  25.086  1.00  0.00     0.011 A 
ATOM      3  C   UNL     1      22.853  71.107  25.078  1.00  0.00     0.030 A 
ATOM      4  C   UNL     1      22.458  70.364  23.974  1.00  0.00     0.076 A 
ATOM      5  N   UNL     1      22.529  69.030  24.030  1.00  0.00    -0.236 NA
ATOM      6  C   UNL     1      22.132  68.352  22.952  1.00  0.00     0.224 A 
ATOM      7  N   UNL     1      21.622  68.876  21.823  1.00  0.00    -0.219 NA
ATOM      8  C   UNL     1      21.584  70.228  21.773  1.00  0.00     0.140 A 
ATOM      9  C   UNL     1      21.996  71.043  22.844  1.00  0.00     0.043 A 
ATOM     10  C   UNL     1      21.970  72.461  22.839  1.00  0.00     0.023 A 
ENDROOT
BRANCH   1  11
ATOM     11  C   UNL     1      22.283  74.678  23.960  1.00  0.00     0.000 A 
ATOM     12  C   UNL     1      23.253  75.492  23.341  1.00  0.00     0.048 A 
ATOM     13  C   UNL     1      23.144  76.887  23.368  1.00  0.00     0.021 A 
ATOM     14  C   UNL     1      22.067  77.495  24.010  1.00  0.00     0.002 A 
ATOM     15  C   UNL     1      21.203  75.317  24.600  1.00  0.00     0.010 A 
ATOM     16  C   UNL     1      21.097  76.710  24.625  1.00  0.00     0.001 A 
ATOM     17  Cl  UNL     1      24.616  74.821  22.503  1.00  0.00    -0.084 Cl
ENDBRANCH   1  11
BRANCH   8  18
ATOM     18  N   UNL     1      21.035  70.819  20.609  1.00  0.00    -0.345 N 
ATOM     19  C   UNL     1      21.056  69.935  19.417  1.00  0.00     0.179 C 
ATOM     20  C   UNL     1      19.711  71.427  20.886  1.00  0.00     0.179 C 
ATOM     21  C   UNL     1      19.746  69.135  19.227  1.00  0.00     0.282 C 
ATOM     22  C   UNL     1      18.596  70.369  21.085  1.00  0.00     0.282 C 
ATOM     23  N   UNL     1      19.004  69.033  20.525  1.00  0.00    -0.343 N 
ATOM     24  H   UNL     1      18.224  68.369  20.489  1.00  0.00     0.346 HD
ATOM     25  H   UNL     1      19.703  68.656  21.196  1.00  0.00     0.346 HD
ENDBRANCH   8  18
TORSDOF 2
ENDMDL
MODEL 8
REMARK VINA RESULT:    -8.386      4.210      6.989
REMARK INTER + INTRA:          -9.124
REMARK INTER:                  -8.685
REMARK INTRA:                  -0.439
REMARK UNBOUND:                 0.243
REMARK SMILES Clc1ccccc1-c1ccc2ncnc(N3CC[NH2+]CC3)c2c1
REMARK SMILES IDX 8 1 9 2 10 3 11 4 12 5 13 6 14 7 15 8 22 9 23 10 7 11 2 12
REMARK SMILES IDX 3 13 4 14 6 15 5 16 1 17 16 18 17 19 21 20 18 21 20 22 19 23
REMARK H PARENT 19 24 19 25
ROOT
ATOM      1  C   UNL     1      21.943  74.121  23.817  1.00  0.00    -0.016 A 
ATOM      2  C   UNL     1      22.491  73.186  24.699  1.00  0.00     0.011 A 
ATOM      3  C   UNL     1      22.169  71.827  24.589  1.00  0.00     0.030 A 
ATOM      4  C   UNL     1      21.292  71.358  23.621  1.00  0.00     0.076 A 
ATOM      5  N   UNL     1      21.019  70.050  23.570  1.00  0.00    -0.236 NA
ATOM      6  C   UNL     1      20.166  69.641  22.630  1.00  0.00     0.224 A 
ATOM      7  N   UNL     1      19.512  70.421  21.750  1.00  0.00    -0.219 NA
ATOM      8  C   UNL     1      19.823  71.738  21.798  1.00  0.00     0.140 A 
ATOM      9  C   UNL     1      20.724  72.277  22.734  1.00  0.00     0.043 A 
ATOM     10  C   UNL     1      21.075  73.648  22.824  1.00  0.00     0.023 A 
ENDROOT
BRANCH   1  11
ATOM     11  C   UNL     1      22.272  75.552  23.925  1.00  0.00     0.000 A 
ATOM     12  C   UNL     1      23.422  76.125  23.344  1.00  0.00     0.048 A 
ATOM     13  C   UNL     1      23.690  77.492  23.477  1.00  0.00     0.021 A 
ATOM     14  C   UNL     1      22.816  78.313  24.187  1.00  0.00     0.002 A 
ATOM     15  C   UNL     1      21.404  76.404  24.636  1.00  0.00     0.010 A 
ATOM     16  C   UNL     1      21.673  77.769  24.766  1.00  0.00     0.001 A 
ATOM     17  Cl  UNL     1      24.554  75.183  22.427  1.00  0.00    -0.084 Cl
ENDBRANCH   1  11
BRANCH   8  18
ATOM     18  N   UNL     1      19.141  72.597  20.900  1.00  0.00    -0.345 N 
ATOM     19  C   UNL     1      18.385  71.885  19.841  1.00  0.00     0.179 C 
ATOM     20  C   UNL     1      18.345  73.615  21.629  1.00  0.00     0.179 C 
ATOM     21  C   UNL     1      16.903  71.638  20.209  1.00  0.00     0.282 C 
ATOM     22  C   UNL     1      17.078  73.021  22.295  1.00  0.00     0.282 C 
ATOM     23  N   UNL     1      16.719  71.689  21.694  1.00  0.00    -0.343 N 
ATOM     24  H   UNL     1      15.796  71.360  21.994  1.00  0.00     0.346 HD
ATOM     25  H   UNL     1      17.423  71.020  22.067  1.00  0.00     0.346 HD
ENDBRANCH   8  18
TORSDOF 2
ENDMDL
MODEL 9
REMARK VINA RESULT:    -8.364      1.842      3.749
REMARK INTER + INTRA:          -9.099
REMARK INTER:                  -9.387
REMARK INTRA:                   0.288
REMARK UNBOUND:                 0.243
REMARK SMILES Clc1ccccc1-c1ccc2ncnc(N3CC[NH2+]CC3)c2c1
REMARK SMILES IDX 8 1 9 2 10 3 11 4 12 5 13 6 14 7 15 8 22 9 23 10 7 11 2 12
REMARK SMILES IDX 3 13 4 14 6 15 5 16 1 17 16 18 17 19 21 20 18 21 20 22 19 23
REMARK H PARENT 19 24 19 25
ROOT
ATOM      1  C   UNL     1      23.162  67.440  23.002  1.00  0.00    -0.016 A 
ATOM      2  C   UNL     1      22.467  66.656  22.078  1.00  0.00     0.011 A 
ATOM      3  C   UNL     1      21.595  67.246  21.154  1.00  0.00     0.030 A 
ATOM      4  C   UNL     1      21.377  68.617  21.125  1.00  0.00     0.076 A 
ATOM      5  N   UNL     1      20.528  69.121  20.223  1.00  0.00    -0.236 NA
ATOM      6  C   UNL     1      20.339  70.441  20.233  1.00  0.00     0.224 A 
ATOM      7  N   UNL     1      20.885  71.319  21.094  1.00  0.00    -0.219 NA
ATOM      8  C   UNL     1      21.763  70.795  21.981  1.00  0.00     0.140 A 
ATOM      9  C   UNL     1      22.053  69.420  22.047  1.00  0.00     0.043 A 
ATOM     10  C   UNL     1      22.961  68.826  22.961  1.00  0.00     0.023 A 
ENDROOT
BRANCH   1  11
ATOM     11  C   UNL     1      24.078  66.831  23.980  1.00  0.00     0.000 A 
ATOM     12  C   UNL     1      24.620  65.538  23.828  1.00  0.00     0.048 A 
ATOM     13  C   UNL     1      25.487  65.004  24.789  1.00  0.00     0.021 A 
ATOM     14  C   UNL     1      25.830  65.749  25.916  1.00  0.00     0.002 A 
ATOM     15  C   UNL     1      24.443  67.563  25.127  1.00  0.00     0.010 A 
ATOM     16  C   UNL     1      25.309  67.028  26.084  1.00  0.00     0.001 A 
ATOM     17  Cl  UNL     1      24.263  64.548  22.449  1.00  0.00    -0.084 Cl
ENDBRANCH   1  11
BRANCH   8  18
ATOM     18  N   UNL     1      22.345  71.683  22.919  1.00  0.00    -0.345 N 
ATOM     19  C   UNL     1      22.112  73.117  22.615  1.00  0.00     0.179 C 
ATOM     20  C   UNL     1      22.005  71.298  24.310  1.00  0.00     0.179 C 
ATOM     21  C   UNL     1      20.872  73.699  23.332  1.00  0.00     0.282 C 
ATOM     22  C   UNL     1      20.530  71.606  24.673  1.00  0.00     0.282 C 
ATOM     23  N   UNL     1      19.928  72.602  23.718  1.00  0.00    -0.343 N 
ATOM     24  H   UNL     1      19.019  72.949  24.036  1.00  0.00     0.346 HD
ATOM     25  H   UNL     1      19.768  72.074  22.836  1.00  0.00     0.346 HD
ENDBRANCH   8  18
TORSDOF 2
ENDMDL
MODEL 10
REMARK VINA RESULT:    -8.320      5.381      9.286
REMARK INTER + INTRA:          -9.051
REMARK INTER:                  -8.959
REMARK INTRA:                  -0.091
REMARK UNBOUND:                 0.243
REMARK SMILES Clc1ccccc1-c1ccc2ncnc(N3CC[NH2+]CC3)c2c1
REMARK SMILES IDX 8 1 9 2 10 3 11 4 12 5 13 6 14 7 15 8 22 9 23 10 7 11 2 12
REMARK SMILES IDX 3 13 4 14 6 15 5 16 1 17 16 18 17 19 21 20 18 21 20 22 19 23
REMARK H PARENT 19 24 19 25
ROOT
ATOM      1  C   UNL     1      20.221  77.610  24.345  1.00  0.00    -0.016 A 
ATOM      2  C   UNL     1      21.267  78.498  24.078  1.00  0.00     0.011 A 
ATOM      3  C   UNL     1      22.522  78.024  23.680  1.00  0.00     0.030 A 
ATOM      4  C   UNL     1      22.785  76.668  23.547  1.00  0.00     0.076 A 
ATOM      5  N   UNL     1      24.006  76.276  23.169  1.00  0.00    -0.236 NA
ATOM      6  C   UNL     1      24.221  74.964  23.060  1.00  0.00     0.224 A 
ATOM      7  N   UNL     1      23.340  73.986  23.339  1.00  0.00    -0.219 NA
ATOM      8  C   UNL     1      22.101  74.401  23.692  1.00  0.00     0.140 A 
ATOM      9  C   UNL     1      21.758  75.760  23.818  1.00  0.00     0.043 A 
ATOM     10  C   UNL     1      20.477  76.241  24.190  1.00  0.00     0.023 A 
ENDROOT
BRANCH   1  11
ATOM     11  C   UNL     1      18.898  78.096  24.767  1.00  0.00     0.000 A 
ATOM     12  C   UNL     1      17.800  78.206  23.888  1.00  0.00     0.048 A 
ATOM     13  C   UNL     1      16.562  78.676  24.340  1.00  0.00     0.021 A 
ATOM     14  C   UNL     1      16.394  79.042  25.675  1.00  0.00     0.002 A 
ATOM     15  C   UNL     1      18.701  78.470  26.110  1.00  0.00     0.010 A 
ATOM     16  C   UNL     1      17.463  78.939  26.559  1.00  0.00     0.001 A 
ATOM     17  Cl  UNL     1      17.913  77.755  22.217  1.00  0.00    -0.084 Cl
ENDBRANCH   1  11
BRANCH   8  18
ATOM     18  N   UNL     1      21.149  73.401  24.012  1.00  0.00    -0.345 N 
ATOM     19  C   UNL     1      20.094  73.223  22.985  1.00  0.00     0.179 C 
ATOM     20  C   UNL     1      21.812  72.139  24.423  1.00  0.00     0.179 C 
ATOM     21  C   UNL     1      20.422  72.114  21.958  1.00  0.00     0.282 C 
ATOM     22  C   UNL     1      22.459  71.387  23.232  1.00  0.00     0.282 C 
ATOM     23  N   UNL     1      21.898  71.860  21.918  1.00  0.00    -0.343 N 
ATOM     24  H   UNL     1      22.180  71.263  21.135  1.00  0.00     0.346 HD
ATOM     25  H   UNL     1      22.319  72.798  21.761  1.00  0.00     0.346 HD
ENDBRANCH   8  18
TORSDOF 2
ENDMDL
