MODEL 1
REMARK VINA RESULT:    -7.542      0.000      0.000
REMARK INTER + INTRA:          -8.611
REMARK INTER:                  -8.424
REMARK INTRA:                  -0.186
REMARK UNBOUND:                -0.186
REMARK SMILES Nc1ccc(-c2nc3c(Cl)cc(N)cc3[nH]2)cc1
REMARK SMILES IDX 6 1 7 2 8 3 9 4 10 5 11 6 12 7 14 8 15 9 16 10 5 12 2 13
REMARK SMILES IDX 3 14 18 15 4 16 17 17 1 18 13 21
REMARK H PARENT 16 11 1 19 1 20 13 22 13 23
ROOT
ATOM      1  C   UNL     1      23.072  69.593  24.279  1.00  0.00     0.138 A 
ATOM      2  N   UNL     1      23.719  69.203  25.363  1.00  0.00    -0.227 NA
ATOM      3  C   UNL     1      24.221  67.948  25.098  1.00  0.00     0.108 A 
ATOM      4  C   UNL     1      25.001  67.065  25.859  1.00  0.00     0.071 A 
ATOM      5  Cl  UNL     1      25.467  67.591  27.415  1.00  0.00    -0.082 Cl
ATOM      6  C   UNL     1      25.380  65.824  25.343  1.00  0.00     0.048 A 
ATOM      7  C   UNL     1      24.949  65.423  24.074  1.00  0.00     0.035 A 
ATOM      8  C   UNL     1      24.217  66.312  23.268  1.00  0.00     0.054 A 
ATOM      9  C   UNL     1      23.857  67.548  23.818  1.00  0.00     0.069 A 
ATOM     10  N   UNL     1      23.141  68.606  23.321  1.00  0.00    -0.338 N 
ATOM     11  H   UNL     1      22.717  68.646  22.406  1.00  0.00     0.168 HD
ENDROOT
BRANCH   1  12
ATOM     12  C   UNL     1      22.372  70.872  24.111  1.00  0.00     0.017 A 
ATOM     13  C   UNL     1      20.958  73.296  23.712  1.00  0.00     0.031 A 
ATOM     14  C   UNL     1      21.015  72.332  22.707  1.00  0.00     0.026 A 
ATOM     15  C   UNL     1      21.677  73.074  24.886  1.00  0.00     0.026 A 
ATOM     16  C   UNL     1      21.693  71.126  22.912  1.00  0.00     0.014 A 
ATOM     17  C   UNL     1      22.360  71.868  25.097  1.00  0.00     0.014 A 
BRANCH  13  18
ATOM     18  N   UNL     1      20.382  74.546  23.462  1.00  0.00    -0.399 N 
ATOM     19  H   UNL     1      19.503  74.694  23.947  1.00  0.00     0.156 HD
ATOM     20  H   UNL     1      21.022  75.325  23.578  1.00  0.00     0.156 HD
ENDBRANCH  13  18
ENDBRANCH   1  12
BRANCH   7  21
ATOM     21  N   UNL     1      25.428  64.226  23.522  1.00  0.00    -0.399 N 
ATOM     22  H   UNL     1      25.909  63.625  24.183  1.00  0.00     0.156 HD
ATOM     23  H   UNL     1      25.952  64.347  22.660  1.00  0.00     0.156 HD
ENDBRANCH   7  21
TORSDOF 3
ENDMDL
MODEL 2
REMARK VINA RESULT:    -7.258      3.153      4.447
REMARK INTER + INTRA:          -8.293
REMARK INTER:                  -8.122
REMARK INTRA:                  -0.171
REMARK UNBOUND:                -0.186
REMARK SMILES Nc1ccc(-c2nc3c(Cl)cc(N)cc3[nH]2)cc1
REMARK SMILES IDX 6 1 7 2 8 3 9 4 10 5 11 6 12 7 14 8 15 9 16 10 5 12 2 13
REMARK SMILES IDX 3 14 18 15 4 16 17 17 1 18 13 21
REMARK H PARENT 16 11 1 19 1 20 13 22 13 23
ROOT
ATOM      1  C   UNL     1      22.199  72.931  23.280  1.00  0.00     0.138 A 
ATOM      2  N   UNL     1      22.642  71.978  24.081  1.00  0.00    -0.227 NA
ATOM      3  C   UNL     1      22.150  70.788  23.593  1.00  0.00     0.108 A 
ATOM      4  C   UNL     1      22.309  69.459  24.015  1.00  0.00     0.071 A 
ATOM      5  Cl  UNL     1      23.302  69.195  25.378  1.00  0.00    -0.082 Cl
ATOM      6  C   UNL     1      21.686  68.414  23.329  1.00  0.00     0.048 A 
ATOM      7  C   UNL     1      20.856  68.682  22.235  1.00  0.00     0.035 A 
ATOM      8  C   UNL     1      20.728  69.996  21.755  1.00  0.00     0.054 A 
ATOM      9  C   UNL     1      21.369  71.017  22.468  1.00  0.00     0.069 A 
ATOM     10  N   UNL     1      21.423  72.375  22.287  1.00  0.00    -0.338 N 
ATOM     11  H   UNL     1      20.954  72.886  21.555  1.00  0.00     0.168 HD
ENDROOT
BRANCH   1  12
ATOM     12  C   UNL     1      22.474  74.366  23.420  1.00  0.00     0.017 A 
ATOM     13  C   UNL     1      22.929  77.142  23.769  1.00  0.00     0.031 A 
ATOM     14  C   UNL     1      21.708  76.571  24.122  1.00  0.00     0.026 A 
ATOM     15  C   UNL     1      23.892  76.330  23.168  1.00  0.00     0.026 A 
ATOM     16  C   UNL     1      21.491  75.198  23.973  1.00  0.00     0.014 A 
ATOM     17  C   UNL     1      23.680  74.953  23.013  1.00  0.00     0.014 A 
BRANCH  13  18
ATOM     18  N   UNL     1      23.101  78.529  23.809  1.00  0.00    -0.399 N 
ATOM     19  H   UNL     1      24.058  78.827  23.643  1.00  0.00     0.156 HD
ATOM     20  H   UNL     1      22.434  79.044  23.243  1.00  0.00     0.156 HD
ENDBRANCH  13  18
ENDBRANCH   1  12
BRANCH   7  21
ATOM     21  N   UNL     1      20.328  67.620  21.485  1.00  0.00    -0.399 N 
ATOM     22  H   UNL     1      19.963  67.892  20.578  1.00  0.00     0.156 HD
ATOM     23  H   UNL     1      19.679  67.031  21.999  1.00  0.00     0.156 HD
ENDBRANCH   7  21
TORSDOF 3
ENDMDL
MODEL 3
REMARK VINA RESULT:    -7.180      2.379      7.028
REMARK INTER + INTRA:          -8.206
REMARK INTER:                  -8.021
REMARK INTRA:                  -0.186
REMARK UNBOUND:                -0.186
REMARK SMILES Nc1ccc(-c2nc3c(Cl)cc(N)cc3[nH]2)cc1
REMARK SMILES IDX 6 1 7 2 8 3 9 4 10 5 11 6 12 7 14 8 15 9 16 10 5 12 2 13
REMARK SMILES IDX 3 14 18 15 4 16 17 17 1 18 13 21
REMARK H PARENT 16 11 1 19 1 20 13 22 13 23
ROOT
ATOM      1  C   UNL     1      22.894  69.843  24.543  1.00  0.00     0.138 A 
ATOM      2  N   UNL     1      21.877  69.778  23.702  1.00  0.00    -0.227 NA
ATOM      3  C   UNL     1      21.385  71.058  23.573  1.00  0.00     0.108 A 
ATOM      4  C   UNL     1      20.339  71.593  22.805  1.00  0.00     0.071 A 
ATOM      5  Cl  UNL     1      19.484  70.508  21.803  1.00  0.00    -0.082 Cl
ATOM      6  C   UNL     1      20.039  72.956  22.862  1.00  0.00     0.048 A 
ATOM      7  C   UNL     1      20.748  73.802  23.722  1.00  0.00     0.035 A 
ATOM      8  C   UNL     1      21.837  73.304  24.456  1.00  0.00     0.054 A 
ATOM      9  C   UNL     1      22.110  71.933  24.372  1.00  0.00     0.069 A 
ATOM     10  N   UNL     1      23.060  71.143  24.967  1.00  0.00    -0.338 N 
ATOM     11  H   UNL     1      23.757  71.461  25.622  1.00  0.00     0.168 HD
ENDROOT
BRANCH   1  12
ATOM     12  C   UNL     1      23.720  68.711  24.979  1.00  0.00     0.017 A 
ATOM     13  C   UNL     1      25.332  66.499  25.716  1.00  0.00     0.031 A 
ATOM     14  C   UNL     1      24.673  66.521  24.488  1.00  0.00     0.026 A 
ATOM     15  C   UNL     1      25.117  67.554  26.604  1.00  0.00     0.026 A 
ATOM     16  C   UNL     1      23.897  67.623  24.114  1.00  0.00     0.014 A 
ATOM     17  C   UNL     1      24.338  68.659  26.236  1.00  0.00     0.014 A 
BRANCH  13  18
ATOM     18  N   UNL     1      26.009  65.350  26.136  1.00  0.00    -0.399 N 
ATOM     19  H   UNL     1      26.699  65.524  26.860  1.00  0.00     0.156 HD
ATOM     20  H   UNL     1      25.399  64.572  26.365  1.00  0.00     0.156 HD
ENDBRANCH  13  18
ENDBRANCH   1  12
BRANCH   7  21
ATOM     21  N   UNL     1      20.515  75.184  23.687  1.00  0.00    -0.399 N 
ATOM     22  H   UNL     1      20.859  75.644  22.850  1.00  0.00     0.156 HD
ATOM     23  H   UNL     1      20.789  75.673  24.534  1.00  0.00     0.156 HD
ENDBRANCH   7  21
TORSDOF 3
ENDMDL
MODEL 4
REMARK VINA RESULT:    -6.958      1.648      2.397
REMARK INTER + INTRA:          -7.958
REMARK INTER:                  -7.771
REMARK INTRA:                  -0.186
REMARK UNBOUND:                -0.186
REMARK SMILES Nc1ccc(-c2nc3c(Cl)cc(N)cc3[nH]2)cc1
REMARK SMILES IDX 6 1 7 2 8 3 9 4 10 5 11 6 12 7 14 8 15 9 16 10 5 12 2 13
REMARK SMILES IDX 3 14 18 15 4 16 17 17 1 18 13 21
REMARK H PARENT 16 11 1 19 1 20 13 22 13 23
ROOT
ATOM      1  C   UNL     1      22.815  69.759  24.106  1.00  0.00     0.138 A 
ATOM      2  N   UNL     1      22.745  68.683  23.342  1.00  0.00    -0.227 NA
ATOM      3  C   UNL     1      23.541  67.725  23.928  1.00  0.00     0.108 A 
ATOM      4  C   UNL     1      23.828  66.396  23.581  1.00  0.00     0.071 A 
ATOM      5  Cl  UNL     1      23.064  65.781  22.184  1.00  0.00    -0.082 Cl
ATOM      6  C   UNL     1      24.690  65.625  24.364  1.00  0.00     0.048 A 
ATOM      7  C   UNL     1      25.317  66.181  25.484  1.00  0.00     0.035 A 
ATOM      8  C   UNL     1      25.001  67.489  25.888  1.00  0.00     0.054 A 
ATOM      9  C   UNL     1      24.132  68.232  25.079  1.00  0.00     0.069 A 
ATOM     10  N   UNL     1      23.651  69.512  25.173  1.00  0.00    -0.338 N 
ATOM     11  H   UNL     1      23.888  70.173  25.897  1.00  0.00     0.168 HD
ENDROOT
BRANCH   1  12
ATOM     12  C   UNL     1      22.126  71.031  23.863  1.00  0.00     0.017 A 
ATOM     13  C   UNL     1      20.875  73.540  23.442  1.00  0.00     0.031 A 
ATOM     14  C   UNL     1      21.784  73.364  24.484  1.00  0.00     0.026 A 
ATOM     15  C   UNL     1      20.537  72.433  22.662  1.00  0.00     0.026 A 
ATOM     16  C   UNL     1      22.420  72.133  24.677  1.00  0.00     0.014 A 
ATOM     17  C   UNL     1      21.168  71.196  22.853  1.00  0.00     0.014 A 
BRANCH  13  18
ATOM     18  N   UNL     1      20.155  74.733  23.324  1.00  0.00    -0.399 N 
ATOM     19  H   UNL     1      19.983  75.012  22.363  1.00  0.00     0.156 HD
ATOM     20  H   UNL     1      19.314  74.765  23.890  1.00  0.00     0.156 HD
ENDBRANCH  13  18
ENDBRANCH   1  12
BRANCH   7  21
ATOM     21  N   UNL     1      26.089  65.368  26.325  1.00  0.00    -0.399 N 
ATOM     22  H   UNL     1      27.054  65.669  26.426  1.00  0.00     0.156 HD
ATOM     23  H   UNL     1      26.016  64.374  26.125  1.00  0.00     0.156 HD
ENDBRANCH   7  21
TORSDOF 3
ENDMDL
MODEL 5
REMARK VINA RESULT:    -6.859      2.764      3.657
REMARK INTER + INTRA:          -7.848
REMARK INTER:                  -7.661
REMARK INTRA:                  -0.186
REMARK UNBOUND:                -0.186
REMARK SMILES Nc1ccc(-c2nc3c(Cl)cc(N)cc3[nH]2)cc1
REMARK SMILES IDX 6 1 7 2 8 3 9 4 10 5 11 6 12 7 14 8 15 9 16 10 5 12 2 13
REMARK SMILES IDX 3 14 18 15 4 16 17 17 1 18 13 21
REMARK H PARENT 16 11 1 19 1 20 13 22 13 23
ROOT
ATOM      1  C   UNL     1      21.944  68.706  23.102  1.00  0.00     0.138 A 
ATOM      2  N   UNL     1      22.663  67.630  22.834  1.00  0.00    -0.227 NA
ATOM      3  C   UNL     1      23.549  67.473  23.877  1.00  0.00     0.108 A 
ATOM      4  C   UNL     1      24.528  66.504  24.144  1.00  0.00     0.071 A 
ATOM      5  Cl  UNL     1      24.693  65.240  23.007  1.00  0.00    -0.082 Cl
ATOM      6  C   UNL     1      25.310  66.580  25.298  1.00  0.00     0.048 A 
ATOM      7  C   UNL     1      25.159  67.651  26.185  1.00  0.00     0.035 A 
ATOM      8  C   UNL     1      24.146  68.602  25.973  1.00  0.00     0.054 A 
ATOM      9  C   UNL     1      23.381  68.492  24.806  1.00  0.00     0.069 A 
ATOM     10  N   UNL     1      22.358  69.251  24.298  1.00  0.00    -0.338 N 
ATOM     11  H   UNL     1      21.983  70.084  24.724  1.00  0.00     0.168 HD
ENDROOT
BRANCH   1  12
ATOM     12  C   UNL     1      20.875  69.256  22.261  1.00  0.00     0.017 A 
ATOM     13  C   UNL     1      18.827  70.414  20.680  1.00  0.00     0.031 A 
ATOM     14  C   UNL     1      19.197  70.986  21.896  1.00  0.00     0.026 A 
ATOM     15  C   UNL     1      19.434  69.217  20.298  1.00  0.00     0.026 A 
ATOM     16  C   UNL     1      20.224  70.429  22.665  1.00  0.00     0.014 A 
ATOM     17  C   UNL     1      20.461  68.651  21.066  1.00  0.00     0.014 A 
BRANCH  13  18
ATOM     18  N   UNL     1      17.725  70.904  19.973  1.00  0.00    -0.399 N 
ATOM     19  H   UNL     1      17.051  71.393  20.555  1.00  0.00     0.156 HD
ATOM     20  H   UNL     1      17.969  71.432  19.141  1.00  0.00     0.156 HD
ENDBRANCH  13  18
ENDBRANCH   1  12
BRANCH   7  21
ATOM     21  N   UNL     1      25.868  67.658  27.396  1.00  0.00    -0.399 N 
ATOM     22  H   UNL     1      25.789  68.524  27.920  1.00  0.00     0.156 HD
ATOM     23  H   UNL     1      26.831  67.343  27.315  1.00  0.00     0.156 HD
ENDBRANCH   7  21
TORSDOF 3
ENDMDL
MODEL 6
REMARK VINA RESULT:    -6.853      2.400      6.749
REMARK INTER + INTRA:          -7.841
REMARK INTER:                  -7.659
REMARK INTRA:                  -0.182
REMARK UNBOUND:                -0.186
REMARK SMILES Nc1ccc(-c2nc3c(Cl)cc(N)cc3[nH]2)cc1
REMARK SMILES IDX 6 1 7 2 8 3 9 4 10 5 11 6 12 7 14 8 15 9 16 10 5 12 2 13
REMARK SMILES IDX 3 14 18 15 4 16 17 17 1 18 13 21
REMARK H PARENT 16 11 1 19 1 20 13 22 13 23
ROOT
ATOM      1  C   UNL     1      22.607  69.475  24.075  1.00  0.00     0.138 A 
ATOM      2  N   UNL     1      22.783  70.780  24.187  1.00  0.00    -0.227 NA
ATOM      3  C   UNL     1      21.696  71.380  23.592  1.00  0.00     0.108 A 
ATOM      4  C   UNL     1      21.332  72.726  23.433  1.00  0.00     0.071 A 
ATOM      5  Cl  UNL     1      22.386  73.894  24.096  1.00  0.00    -0.082 Cl
ATOM      6  C   UNL     1      20.151  73.072  22.773  1.00  0.00     0.048 A 
ATOM      7  C   UNL     1      19.333  72.081  22.219  1.00  0.00     0.035 A 
ATOM      8  C   UNL     1      19.643  70.724  22.416  1.00  0.00     0.054 A 
ATOM      9  C   UNL     1      20.834  70.416  23.084  1.00  0.00     0.069 A 
ATOM     10  N   UNL     1      21.428  69.223  23.409  1.00  0.00    -0.338 N 
ATOM     11  H   UNL     1      21.067  68.310  23.180  1.00  0.00     0.168 HD
ENDROOT
BRANCH   1  12
ATOM     12  C   UNL     1      23.524  68.441  24.568  1.00  0.00     0.017 A 
ATOM     13  C   UNL     1      25.315  66.414  25.417  1.00  0.00     0.031 A 
ATOM     14  C   UNL     1      24.664  66.319  24.188  1.00  0.00     0.026 A 
ATOM     15  C   UNL     1      25.004  67.488  26.251  1.00  0.00     0.026 A 
ATOM     16  C   UNL     1      23.799  67.331  23.758  1.00  0.00     0.014 A 
ATOM     17  C   UNL     1      24.136  68.504  25.827  1.00  0.00     0.014 A 
BRANCH  13  18
ATOM     18  N   UNL     1      26.085  65.349  25.894  1.00  0.00    -0.399 N 
ATOM     19  H   UNL     1      27.083  65.471  25.753  1.00  0.00     0.156 HD
ATOM     20  H   UNL     1      25.862  65.072  26.845  1.00  0.00     0.156 HD
ENDBRANCH  13  18
ENDBRANCH   1  12
BRANCH   7  21
ATOM     21  N   UNL     1      18.096  72.431  21.659  1.00  0.00    -0.399 N 
ATOM     22  H   UNL     1      17.833  71.877  20.850  1.00  0.00     0.156 HD
ATOM     23  H   UNL     1      17.981  73.427  21.496  1.00  0.00     0.156 HD
ENDBRANCH   7  21
TORSDOF 3
ENDMDL
MODEL 7
REMARK VINA RESULT:    -6.726      3.540      6.690
REMARK INTER + INTRA:          -7.699
REMARK INTER:                  -7.514
REMARK INTRA:                  -0.185
REMARK UNBOUND:                -0.186
REMARK SMILES Nc1ccc(-c2nc3c(Cl)cc(N)cc3[nH]2)cc1
REMARK SMILES IDX 6 1 7 2 8 3 9 4 10 5 11 6 12 7 14 8 15 9 16 10 5 12 2 13
REMARK SMILES IDX 3 14 18 15 4 16 17 17 1 18 13 21
REMARK H PARENT 16 11 1 19 1 20 13 22 13 23
ROOT
ATOM      1  C   UNL     1      22.063  68.948  23.007  1.00  0.00     0.138 A 
ATOM      2  N   UNL     1      22.045  68.431  21.791  1.00  0.00    -0.227 NA
ATOM      3  C   UNL     1      20.961  68.981  21.142  1.00  0.00     0.108 A 
ATOM      4  C   UNL     1      20.465  68.825  19.839  1.00  0.00     0.071 A 
ATOM      5  Cl  UNL     1      21.332  67.781  18.802  1.00  0.00    -0.082 Cl
ATOM      6  C   UNL     1      19.321  69.511  19.425  1.00  0.00     0.048 A 
ATOM      7  C   UNL     1      18.626  70.332  20.319  1.00  0.00     0.035 A 
ATOM      8  C   UNL     1      19.135  70.553  21.610  1.00  0.00     0.054 A 
ATOM      9  C   UNL     1      20.284  69.849  21.989  1.00  0.00     0.069 A 
ATOM     10  N   UNL     1      21.004  69.816  23.156  1.00  0.00    -0.338 N 
ATOM     11  H   UNL     1      20.782  70.332  23.994  1.00  0.00     0.168 HD
ENDROOT
BRANCH   1  12
ATOM     12  C   UNL     1      23.047  68.645  24.053  1.00  0.00     0.017 A 
ATOM     13  C   UNL     1      24.886  68.115  26.144  1.00  0.00     0.031 A 
ATOM     14  C   UNL     1      24.049  69.228  26.198  1.00  0.00     0.026 A 
ATOM     15  C   UNL     1      24.852  67.313  25.002  1.00  0.00     0.026 A 
ATOM     16  C   UNL     1      23.125  69.477  25.178  1.00  0.00     0.014 A 
ATOM     17  C   UNL     1      23.930  67.559  23.975  1.00  0.00     0.014 A 
BRANCH  13  18
ATOM     18  N   UNL     1      25.887  67.934  27.103  1.00  0.00    -0.399 N 
ATOM     19  H   UNL     1      25.591  67.384  27.904  1.00  0.00     0.156 HD
ATOM     20  H   UNL     1      26.771  67.613  26.722  1.00  0.00     0.156 HD
ENDBRANCH  13  18
ENDBRANCH   1  12
BRANCH   7  21
ATOM     21  N   UNL     1      17.548  71.103  19.862  1.00  0.00    -0.399 N 
ATOM     22  H   UNL     1      17.031  71.575  20.598  1.00  0.00     0.156 HD
ATOM     23  H   UNL     1      16.935  70.618  19.213  1.00  0.00     0.156 HD
ENDBRANCH   7  21
TORSDOF 3
ENDMDL
MODEL 8
REMARK VINA RESULT:    -6.717      3.324      6.376
REMARK INTER + INTRA:          -7.689
REMARK INTER:                  -7.503
REMARK INTRA:                  -0.186
REMARK UNBOUND:                -0.186
REMARK SMILES Nc1ccc(-c2nc3c(Cl)cc(N)cc3[nH]2)cc1
REMARK SMILES IDX 6 1 7 2 8 3 9 4 10 5 11 6 12 7 14 8 15 9 16 10 5 12 2 13
REMARK SMILES IDX 3 14 18 15 4 16 17 17 1 18 13 21
REMARK H PARENT 16 11 1 19 1 20 13 22 13 23
ROOT
ATOM      1  C   UNL     1      22.377  68.694  23.547  1.00  0.00     0.138 A 
ATOM      2  N   UNL     1      21.672  69.812  23.581  1.00  0.00    -0.227 NA
ATOM      3  C   UNL     1      20.914  69.840  22.432  1.00  0.00     0.108 A 
ATOM      4  C   UNL     1      19.971  70.760  21.948  1.00  0.00     0.071 A 
ATOM      5  Cl  UNL     1      19.643  72.118  22.928  1.00  0.00    -0.082 Cl
ATOM      6  C   UNL     1      19.332  70.548  20.724  1.00  0.00     0.048 A 
ATOM      7  C   UNL     1      19.657  69.436  19.940  1.00  0.00     0.035 A 
ATOM      8  C   UNL     1      20.551  68.469  20.429  1.00  0.00     0.054 A 
ATOM      9  C   UNL     1      21.171  68.714  21.660  1.00  0.00     0.069 A 
ATOM     10  N   UNL     1      22.090  68.005  22.389  1.00  0.00    -0.338 N 
ATOM     11  H   UNL     1      22.503  67.127  22.112  1.00  0.00     0.168 HD
ENDROOT
BRANCH   1  12
ATOM     12  C   UNL     1      23.329  68.249  24.570  1.00  0.00     0.017 A 
ATOM     13  C   UNL     1      25.232  67.346  26.467  1.00  0.00     0.031 A 
ATOM     14  C   UNL     1      25.121  66.729  25.222  1.00  0.00     0.026 A 
ATOM     15  C   UNL     1      24.334  68.365  26.785  1.00  0.00     0.026 A 
ATOM     16  C   UNL     1      24.199  67.189  24.277  1.00  0.00     0.014 A 
ATOM     17  C   UNL     1      23.405  68.829  25.843  1.00  0.00     0.014 A 
BRANCH  13  18
ATOM     18  N   UNL     1      26.070  66.811  27.451  1.00  0.00    -0.399 N 
ATOM     19  H   UNL     1      25.622  66.107  28.029  1.00  0.00     0.156 HD
ATOM     20  H   UNL     1      26.972  66.505  27.102  1.00  0.00     0.156 HD
ENDBRANCH  13  18
ENDBRANCH   1  12
BRANCH   7  21
ATOM     21  N   UNL     1      18.929  69.173  18.770  1.00  0.00    -0.399 N 
ATOM     22  H   UNL     1      19.483  68.778  18.015  1.00  0.00     0.156 HD
ATOM     23  H   UNL     1      18.350  69.947  18.458  1.00  0.00     0.156 HD
ENDBRANCH   7  21
TORSDOF 3
ENDMDL
MODEL 9
REMARK VINA RESULT:    -6.588      2.437      3.100
REMARK INTER + INTRA:          -7.544
REMARK INTER:                  -7.357
REMARK INTRA:                  -0.188
REMARK UNBOUND:                -0.186
REMARK SMILES Nc1ccc(-c2nc3c(Cl)cc(N)cc3[nH]2)cc1
REMARK SMILES IDX 6 1 7 2 8 3 9 4 10 5 11 6 12 7 14 8 15 9 16 10 5 12 2 13
REMARK SMILES IDX 3 14 18 15 4 16 17 17 1 18 13 21
REMARK H PARENT 16 11 1 19 1 20 13 22 13 23
ROOT
ATOM      1  C   UNL     1      21.809  68.901  22.738  1.00  0.00     0.138 A 
ATOM      2  N   UNL     1      22.530  69.467  23.690  1.00  0.00    -0.227 NA
ATOM      3  C   UNL     1      23.473  68.542  24.079  1.00  0.00     0.108 A 
ATOM      4  C   UNL     1      24.510  68.592  25.023  1.00  0.00     0.071 A 
ATOM      5  Cl  UNL     1      24.707  70.058  25.875  1.00  0.00    -0.082 Cl
ATOM      6  C   UNL     1      25.340  67.488  25.229  1.00  0.00     0.048 A 
ATOM      7  C   UNL     1      25.121  66.297  24.529  1.00  0.00     0.035 A 
ATOM      8  C   UNL     1      24.128  66.239  23.536  1.00  0.00     0.054 A 
ATOM      9  C   UNL     1      23.317  67.366  23.356  1.00  0.00     0.069 A 
ATOM     10  N   UNL     1      22.267  67.622  22.512  1.00  0.00    -0.338 N 
ATOM     11  H   UNL     1      21.881  66.970  21.846  1.00  0.00     0.168 HD
ENDROOT
BRANCH   1  12
ATOM     12  C   UNL     1      20.684  69.522  22.029  1.00  0.00     0.017 A 
ATOM     13  C   UNL     1      18.532  70.815  20.713  1.00  0.00     0.031 A 
ATOM     14  C   UNL     1      18.987  71.271  21.950  1.00  0.00     0.026 A 
ATOM     15  C   UNL     1      19.109  69.663  20.177  1.00  0.00     0.026 A 
ATOM     16  C   UNL     1      20.064  70.648  22.588  1.00  0.00     0.014 A 
ATOM     17  C   UNL     1      20.187  69.033  20.814  1.00  0.00     0.014 A 
BRANCH  13  18
ATOM     18  N   UNL     1      17.383  71.364  20.135  1.00  0.00    -0.399 N 
ATOM     19  H   UNL     1      17.530  72.284  19.731  1.00  0.00     0.156 HD
ATOM     20  H   UNL     1      16.901  70.737  19.500  1.00  0.00     0.156 HD
ENDBRANCH  13  18
ENDBRANCH   1  12
BRANCH   7  21
ATOM     21  N   UNL     1      26.028  65.235  24.660  1.00  0.00    -0.399 N 
ATOM     22  H   UNL     1      26.627  65.097  23.852  1.00  0.00     0.156 HD
ATOM     23  H   UNL     1      25.607  64.368  24.980  1.00  0.00     0.156 HD
ENDBRANCH   7  21
TORSDOF 3
ENDMDL
MODEL 10
REMARK VINA RESULT:    -6.539      7.588     10.713
REMARK INTER + INTRA:          -7.490
REMARK INTER:                  -7.315
REMARK INTRA:                  -0.175
REMARK UNBOUND:                -0.186
REMARK SMILES Nc1ccc(-c2nc3c(Cl)cc(N)cc3[nH]2)cc1
REMARK SMILES IDX 6 1 7 2 8 3 9 4 10 5 11 6 12 7 14 8 15 9 16 10 5 12 2 13
REMARK SMILES IDX 3 14 18 15 4 16 17 17 1 18 13 21
REMARK H PARENT 16 11 1 19 1 20 13 22 13 23
ROOT
ATOM      1  C   UNL     1      19.814  77.032  23.868  1.00  0.00     0.138 A 
ATOM      2  N   UNL     1      19.262  77.731  24.845  1.00  0.00    -0.227 NA
ATOM      3  C   UNL     1      17.910  77.775  24.588  1.00  0.00     0.108 A 
ATOM      4  C   UNL     1      16.836  78.350  25.285  1.00  0.00     0.071 A 
ATOM      5  Cl  UNL     1      17.206  79.148  26.748  1.00  0.00    -0.082 Cl
ATOM      6  C   UNL     1      15.533  78.250  24.795  1.00  0.00     0.048 A 
ATOM      7  C   UNL     1      15.282  77.612  23.575  1.00  0.00     0.035 A 
ATOM      8  C   UNL     1      16.330  76.976  22.887  1.00  0.00     0.054 A 
ATOM      9  C   UNL     1      17.623  77.097  23.410  1.00  0.00     0.069 A 
ATOM     10  N   UNL     1      18.839  76.631  22.981  1.00  0.00    -0.338 N 
ATOM     11  H   UNL     1      18.996  76.096  22.140  1.00  0.00     0.168 HD
ENDROOT
BRANCH   1  12
ATOM     12  C   UNL     1      21.243  76.731  23.730  1.00  0.00     0.017 A 
ATOM     13  C   UNL     1      24.027  76.244  23.511  1.00  0.00     0.031 A 
ATOM     14  C   UNL     1      23.537  77.546  23.594  1.00  0.00     0.026 A 
ATOM     15  C   UNL     1      23.112  75.192  23.460  1.00  0.00     0.026 A 
ATOM     16  C   UNL     1      22.165  77.786  23.726  1.00  0.00     0.014 A 
ATOM     17  C   UNL     1      21.736  75.426  23.590  1.00  0.00     0.014 A 
BRANCH  13  18
ATOM     18  N   UNL     1      25.383  76.012  23.261  1.00  0.00    -0.399 N 
ATOM     19  H   UNL     1      25.647  76.142  22.289  1.00  0.00     0.156 HD
ATOM     20  H   UNL     1      26.009  76.496  23.897  1.00  0.00     0.156 HD
ENDBRANCH  13  18
ENDBRANCH   1  12
BRANCH   7  21
ATOM     21  N   UNL     1      13.960  77.418  23.149  1.00  0.00    -0.399 N 
ATOM     22  H   UNL     1      13.685  76.443  23.078  1.00  0.00     0.156 HD
ATOM     23  H   UNL     1      13.709  77.950  22.321  1.00  0.00     0.156 HD
ENDBRANCH   7  21
TORSDOF 3
ENDMDL
