MODEL 1
REMARK VINA RESULT:    -9.093      0.000      0.000
REMARK INTER + INTRA:         -14.166
REMARK INTER:                 -12.814
REMARK INTRA:                  -1.351
REMARK UNBOUND:                -1.351
REMARK SMILES COc1ccccc1CNc1ncnc2ccc(-c3ccccc3C[NH+](C)C)cc12
REMARK SMILES IDX 11 1 12 2 13 3 14 4 15 5 16 6 17 7 18 8 29 9 30 10 10 11
REMARK SMILES IDX 9 13 8 14 3 15 4 16 5 17 7 18 6 19 2 20 1 21 19 22 20 23
REMARK SMILES IDX 24 24 21 25 23 26 22 27 25 28 26 29 27 30 28 31
REMARK H PARENT 10 12 26 32
ROOT
ATOM      1  C   UNL     1      22.606  74.499  23.625  1.00  0.00     0.137 A 
ATOM      2  N   UNL     1      23.839  74.205  23.187  1.00  0.00    -0.219 NA
ATOM      3  C   UNL     1      24.655  75.231  22.927  1.00  0.00     0.224 A 
ATOM      4  N   UNL     1      24.367  76.526  23.085  1.00  0.00    -0.236 NA
ATOM      5  C   UNL     1      23.136  76.813  23.511  1.00  0.00     0.076 A 
ATOM      6  C   UNL     1      22.781  78.148  23.652  1.00  0.00     0.030 A 
ATOM      7  C   UNL     1      21.510  78.534  24.088  1.00  0.00     0.011 A 
ATOM      8  C   UNL     1      20.551  77.573  24.412  1.00  0.00    -0.017 A 
ATOM      9  C   UNL     1      20.894  76.223  24.256  1.00  0.00     0.023 A 
ATOM     10  C   UNL     1      22.186  75.831  23.814  1.00  0.00     0.043 A 
ENDROOT
BRANCH   1  11
ATOM     11  N   UNL     1      21.705  73.449  23.914  1.00  0.00    -0.365 N 
ATOM     12  H   UNL     1      20.763  73.818  23.859  1.00  0.00     0.162 HD
BRANCH  11  13
ATOM     13  C   UNL     1      21.902  72.769  25.204  1.00  0.00     0.154 C 
BRANCH  13  14
ATOM     14  C   UNL     1      22.561  71.408  25.090  1.00  0.00     0.013 A 
ATOM     15  C   UNL     1      21.993  70.426  24.251  1.00  0.00     0.123 A 
ATOM     16  C   UNL     1      22.616  69.180  24.119  1.00  0.00     0.047 A 
ATOM     17  C   UNL     1      23.804  68.905  24.799  1.00  0.00     0.004 A 
ATOM     18  C   UNL     1      23.771  71.119  25.747  1.00  0.00     0.009 A 
ATOM     19  C   UNL     1      24.384  69.874  25.609  1.00  0.00     0.001 A 
BRANCH  15  20
ATOM     20  O   UNL     1      20.845  70.792  23.594  1.00  0.00    -0.496 OA
ATOM     21  C   UNL     1      20.374  69.925  22.568  1.00  0.00     0.278 C 
ENDBRANCH  15  20
ENDBRANCH  13  14
ENDBRANCH  11  13
ENDBRANCH   1  11
BRANCH   8  22
ATOM     22  C   UNL     1      19.213  77.965  24.873  1.00  0.00    -0.010 A 
ATOM     23  C   UNL     1      19.093  78.577  26.134  1.00  0.00     0.009 A 
ATOM     24  C   UNL     1      18.045  77.760  24.101  1.00  0.00     0.014 A 
ATOM     25  C   UNL     1      17.854  78.986  26.625  1.00  0.00     0.001 A 
ATOM     26  C   UNL     1      16.801  78.189  24.609  1.00  0.00     0.010 A 
ATOM     27  C   UNL     1      16.708  78.796  25.861  1.00  0.00     0.001 A 
BRANCH  24  28
ATOM     28  C   UNL     1      18.072  77.085  22.750  1.00  0.00     0.299 C 
BRANCH  28  29
ATOM     29  N   UNL     1      17.723  75.609  22.804  1.00  0.00    -0.336 N 
ATOM     30  C   UNL     1      16.267  75.376  22.526  1.00  0.00     0.332 C 
ATOM     31  C   UNL     1      18.594  74.774  21.909  1.00  0.00     0.332 C 
ATOM     32  H   UNL     1      17.905  75.298  23.764  1.00  0.00     0.347 HD
ENDBRANCH  28  29
ENDBRANCH  24  28
ENDBRANCH   8  22
TORSDOF 7
ENDMDL
MODEL 2
REMARK VINA RESULT:    -8.870      2.590      8.962
REMARK INTER + INTRA:         -13.851
REMARK INTER:                 -13.132
REMARK INTRA:                  -0.719
REMARK UNBOUND:                -1.351
REMARK SMILES COc1ccccc1CNc1ncnc2ccc(-c3ccccc3C[NH+](C)C)cc12
REMARK SMILES IDX 11 1 12 2 13 3 14 4 15 5 16 6 17 7 18 8 29 9 30 10 10 11
REMARK SMILES IDX 9 13 8 14 3 15 4 16 5 17 7 18 6 19 2 20 1 21 19 22 20 23
REMARK SMILES IDX 24 24 21 25 23 26 22 27 25 28 26 29 27 30 28 31
REMARK H PARENT 10 12 26 32
ROOT
ATOM      1  C   UNL     1      21.120  71.703  22.836  1.00  0.00     0.137 A 
ATOM      2  N   UNL     1      20.175  72.251  22.057  1.00  0.00    -0.219 NA
ATOM      3  C   UNL     1      19.546  71.442  21.200  1.00  0.00     0.224 A 
ATOM      4  N   UNL     1      19.752  70.128  21.062  1.00  0.00    -0.236 NA
ATOM      5  C   UNL     1      20.699  69.591  21.831  1.00  0.00     0.076 A 
ATOM      6  C   UNL     1      20.973  68.237  21.692  1.00  0.00     0.030 A 
ATOM      7  C   UNL     1      21.955  67.598  22.457  1.00  0.00     0.011 A 
ATOM      8  C   UNL     1      22.688  68.312  23.406  1.00  0.00    -0.017 A 
ATOM      9  C   UNL     1      22.431  69.683  23.542  1.00  0.00     0.023 A 
ATOM     10  C   UNL     1      21.433  70.332  22.765  1.00  0.00     0.043 A 
ENDROOT
BRANCH   1  11
ATOM     11  N   UNL     1      21.814  72.518  23.759  1.00  0.00    -0.365 N 
ATOM     12  H   UNL     1      21.924  71.997  24.620  1.00  0.00     0.162 HD
BRANCH  11  13
ATOM     13  C   UNL     1      21.209  73.830  24.040  1.00  0.00     0.154 C 
BRANCH  13  14
ATOM     14  C   UNL     1      22.131  75.005  23.776  1.00  0.00     0.013 A 
ATOM     15  C   UNL     1      21.765  76.293  24.218  1.00  0.00     0.123 A 
ATOM     16  C   UNL     1      22.628  77.374  24.004  1.00  0.00     0.047 A 
ATOM     17  C   UNL     1      23.857  77.185  23.369  1.00  0.00     0.004 A 
ATOM     18  C   UNL     1      23.384  74.833  23.160  1.00  0.00     0.009 A 
ATOM     19  C   UNL     1      24.237  75.915  22.950  1.00  0.00     0.001 A 
BRANCH  15  20
ATOM     20  O   UNL     1      20.556  76.383  24.864  1.00  0.00    -0.496 OA
ATOM     21  C   UNL     1      20.195  77.650  25.401  1.00  0.00     0.278 C 
ENDBRANCH  15  20
ENDBRANCH  13  14
ENDBRANCH  11  13
ENDBRANCH   1  11
BRANCH   8  22
ATOM     22  C   UNL     1      23.719  67.652  24.217  1.00  0.00    -0.010 A 
ATOM     23  C   UNL     1      24.517  66.665  23.610  1.00  0.00     0.009 A 
ATOM     24  C   UNL     1      23.948  67.972  25.577  1.00  0.00     0.014 A 
ATOM     25  C   UNL     1      25.523  66.010  24.319  1.00  0.00     0.001 A 
ATOM     26  C   UNL     1      24.977  67.306  26.276  1.00  0.00     0.010 A 
ATOM     27  C   UNL     1      25.755  66.333  25.651  1.00  0.00     0.001 A 
BRANCH  24  28
ATOM     28  C   UNL     1      23.122  68.995  26.320  1.00  0.00     0.299 C 
BRANCH  28  29
ATOM     29  N   UNL     1      23.950  70.108  26.935  1.00  0.00    -0.336 N 
ATOM     30  C   UNL     1      24.645  70.924  25.886  1.00  0.00     0.332 C 
ATOM     31  C   UNL     1      23.152  70.976  27.868  1.00  0.00     0.332 C 
ATOM     32  H   UNL     1      24.676  69.657  27.503  1.00  0.00     0.347 HD
ENDBRANCH  28  29
ENDBRANCH  24  28
ENDBRANCH   8  22
TORSDOF 7
ENDMDL
MODEL 3
REMARK VINA RESULT:    -8.523      5.079      8.649
REMARK INTER + INTRA:         -13.363
REMARK INTER:                 -12.555
REMARK INTRA:                  -0.808
REMARK UNBOUND:                -1.351
REMARK SMILES COc1ccccc1CNc1ncnc2ccc(-c3ccccc3C[NH+](C)C)cc12
REMARK SMILES IDX 11 1 12 2 13 3 14 4 15 5 16 6 17 7 18 8 29 9 30 10 10 11
REMARK SMILES IDX 9 13 8 14 3 15 4 16 5 17 7 18 6 19 2 20 1 21 19 22 20 23
REMARK SMILES IDX 24 24 21 25 23 26 22 27 25 28 26 29 27 30 28 31
REMARK H PARENT 10 12 26 32
ROOT
ATOM      1  C   UNL     1      24.267  65.831  23.802  1.00  0.00     0.137 A 
ATOM      2  N   UNL     1      25.004  64.812  24.268  1.00  0.00    -0.219 NA
ATOM      3  C   UNL     1      25.703  65.025  25.386  1.00  0.00     0.224 A 
ATOM      4  N   UNL     1      25.719  66.154  26.101  1.00  0.00    -0.236 NA
ATOM      5  C   UNL     1      24.994  67.168  25.628  1.00  0.00     0.076 A 
ATOM      6  C   UNL     1      25.013  68.372  26.319  1.00  0.00     0.030 A 
ATOM      7  C   UNL     1      24.285  69.485  25.887  1.00  0.00     0.011 A 
ATOM      8  C   UNL     1      23.495  69.411  24.738  1.00  0.00    -0.017 A 
ATOM      9  C   UNL     1      23.482  68.205  24.025  1.00  0.00     0.023 A 
ATOM     10  C   UNL     1      24.222  67.074  24.464  1.00  0.00     0.043 A 
ENDROOT
BRANCH   1  11
ATOM     11  N   UNL     1      23.511  65.656  22.621  1.00  0.00    -0.365 N 
ATOM     12  H   UNL     1      22.600  66.076  22.765  1.00  0.00     0.162 HD
BRANCH  11  13
ATOM     13  C   UNL     1      23.355  64.268  22.158  1.00  0.00     0.154 C 
BRANCH  13  14
ATOM     14  C   UNL     1      24.139  63.945  20.900  1.00  0.00     0.013 A 
ATOM     15  C   UNL     1      23.590  64.254  19.638  1.00  0.00     0.123 A 
ATOM     16  C   UNL     1      24.324  63.986  18.476  1.00  0.00     0.047 A 
ATOM     17  C   UNL     1      25.602  63.430  18.557  1.00  0.00     0.004 A 
ATOM     18  C   UNL     1      25.437  63.407  20.960  1.00  0.00     0.009 A 
ATOM     19  C   UNL     1      26.161  63.144  19.798  1.00  0.00     0.001 A 
BRANCH  15  20
ATOM     20  O   UNL     1      22.344  64.830  19.651  1.00  0.00    -0.496 OA
ATOM     21  C   UNL     1      22.044  65.762  18.619  1.00  0.00     0.278 C 
ENDBRANCH  15  20
ENDBRANCH  13  14
ENDBRANCH  11  13
ENDBRANCH   1  11
BRANCH   8  22
ATOM     22  C   UNL     1      22.724  70.572  24.276  1.00  0.00    -0.010 A 
ATOM     23  C   UNL     1      22.426  71.589  25.200  1.00  0.00     0.009 A 
ATOM     24  C   UNL     1      22.274  70.712  22.941  1.00  0.00     0.014 A 
ATOM     25  C   UNL     1      21.710  72.724  24.823  1.00  0.00     0.001 A 
ATOM     26  C   UNL     1      21.560  71.872  22.574  1.00  0.00     0.010 A 
ATOM     27  C   UNL     1      21.280  72.867  23.509  1.00  0.00     0.001 A 
BRANCH  24  28
ATOM     28  C   UNL     1      22.520  69.659  21.886  1.00  0.00     0.299 C 
BRANCH  28  29
ATOM     29  N   UNL     1      21.253  69.181  21.202  1.00  0.00    -0.336 N 
ATOM     30  C   UNL     1      21.341  69.330  19.712  1.00  0.00     0.332 C 
ATOM     31  C   UNL     1      20.876  67.780  21.593  1.00  0.00     0.332 C 
ATOM     32  H   UNL     1      20.495  69.790  21.527  1.00  0.00     0.347 HD
ENDBRANCH  28  29
ENDBRANCH  24  28
ENDBRANCH   8  22
TORSDOF 7
ENDMDL
MODEL 4
REMARK VINA RESULT:    -8.459      2.344      7.735
REMARK INTER + INTRA:         -13.272
REMARK INTER:                 -12.054
REMARK INTRA:                  -1.218
REMARK UNBOUND:                -1.351
REMARK SMILES COc1ccccc1CNc1ncnc2ccc(-c3ccccc3C[NH+](C)C)cc12
REMARK SMILES IDX 11 1 12 2 13 3 14 4 15 5 16 6 17 7 18 8 29 9 30 10 10 11
REMARK SMILES IDX 9 13 8 14 3 15 4 16 5 17 7 18 6 19 2 20 1 21 19 22 20 23
REMARK SMILES IDX 24 24 21 25 23 26 22 27 25 28 26 29 27 30 28 31
REMARK H PARENT 10 12 26 32
ROOT
ATOM      1  C   UNL     1      21.281  76.949  24.576  1.00  0.00     0.137 A 
ATOM      2  N   UNL     1      21.757  78.203  24.600  1.00  0.00    -0.219 NA
ATOM      3  C   UNL     1      22.924  78.424  23.988  1.00  0.00     0.224 A 
ATOM      4  N   UNL     1      23.653  77.516  23.330  1.00  0.00    -0.236 NA
ATOM      5  C   UNL     1      23.180  76.269  23.319  1.00  0.00     0.076 A 
ATOM      6  C   UNL     1      23.925  75.286  22.681  1.00  0.00     0.030 A 
ATOM      7  C   UNL     1      23.502  73.954  22.629  1.00  0.00     0.011 A 
ATOM      8  C   UNL     1      22.293  73.572  23.213  1.00  0.00    -0.017 A 
ATOM      9  C   UNL     1      21.543  74.553  23.875  1.00  0.00     0.023 A 
ATOM     10  C   UNL     1      21.972  75.907  23.928  1.00  0.00     0.043 A 
ENDROOT
BRANCH   1  11
ATOM     11  N   UNL     1      20.050  76.664  25.211  1.00  0.00    -0.365 N 
ATOM     12  H   UNL     1      19.463  76.166  24.552  1.00  0.00     0.162 HD
BRANCH  11  13
ATOM     13  C   UNL     1      19.324  77.823  25.753  1.00  0.00     0.154 C 
BRANCH  13  14
ATOM     14  C   UNL     1      18.048  78.157  25.004  1.00  0.00     0.013 A 
ATOM     15  C   UNL     1      16.799  77.967  25.632  1.00  0.00     0.123 A 
ATOM     16  C   UNL     1      15.621  78.305  24.956  1.00  0.00     0.047 A 
ATOM     17  C   UNL     1      15.672  78.842  23.668  1.00  0.00     0.004 A 
ATOM     18  C   UNL     1      18.077  78.723  23.717  1.00  0.00     0.009 A 
ATOM     19  C   UNL     1      16.899  79.056  23.050  1.00  0.00     0.001 A 
BRANCH  15  20
ATOM     20  O   UNL     1      16.842  77.466  26.910  1.00  0.00    -0.496 OA
ATOM     21  C   UNL     1      16.019  76.342  27.199  1.00  0.00     0.278 C 
ENDBRANCH  15  20
ENDBRANCH  13  14
ENDBRANCH  11  13
ENDBRANCH   1  11
BRANCH   8  22
ATOM     22  C   UNL     1      21.837  72.177  23.163  1.00  0.00    -0.010 A 
ATOM     23  C   UNL     1      21.075  71.762  22.056  1.00  0.00     0.009 A 
ATOM     24  C   UNL     1      22.137  71.234  24.176  1.00  0.00     0.014 A 
ATOM     25  C   UNL     1      20.622  70.449  21.940  1.00  0.00     0.001 A 
ATOM     26  C   UNL     1      21.680  69.907  24.036  1.00  0.00     0.010 A 
ATOM     27  C   UNL     1      20.928  69.520  22.928  1.00  0.00     0.001 A 
BRANCH  24  28
ATOM     28  C   UNL     1      22.923  71.595  25.414  1.00  0.00     0.299 C 
BRANCH  28  29
ATOM     29  N   UNL     1      23.376  70.390  26.216  1.00  0.00    -0.336 N 
ATOM     30  C   UNL     1      24.807  70.041  25.930  1.00  0.00     0.332 C 
ATOM     31  C   UNL     1      23.133  70.549  27.690  1.00  0.00     0.332 C 
ATOM     32  H   UNL     1      22.801  69.598  25.908  1.00  0.00     0.347 HD
ENDBRANCH  28  29
ENDBRANCH  24  28
ENDBRANCH   8  22
TORSDOF 7
ENDMDL
MODEL 5
REMARK VINA RESULT:    -8.386      2.500      5.244
REMARK INTER + INTRA:         -13.169
REMARK INTER:                 -12.520
REMARK INTRA:                  -0.648
REMARK UNBOUND:                -1.351
REMARK SMILES COc1ccccc1CNc1ncnc2ccc(-c3ccccc3C[NH+](C)C)cc12
REMARK SMILES IDX 11 1 12 2 13 3 14 4 15 5 16 6 17 7 18 8 29 9 30 10 10 11
REMARK SMILES IDX 9 13 8 14 3 15 4 16 5 17 7 18 6 19 2 20 1 21 19 22 20 23
REMARK SMILES IDX 24 24 21 25 23 26 22 27 25 28 26 29 27 30 28 31
REMARK H PARENT 10 12 26 32
ROOT
ATOM      1  C   UNL     1      21.889  70.245  23.513  1.00  0.00     0.137 A 
ATOM      2  N   UNL     1      21.112  69.174  23.294  1.00  0.00    -0.219 NA
ATOM      3  C   UNL     1      19.876  69.399  22.839  1.00  0.00     0.224 A 
ATOM      4  N   UNL     1      19.346  70.594  22.557  1.00  0.00    -0.236 NA
ATOM      5  C   UNL     1      20.119  71.655  22.787  1.00  0.00     0.076 A 
ATOM      6  C   UNL     1      19.595  72.918  22.546  1.00  0.00     0.030 A 
ATOM      7  C   UNL     1      20.337  74.083  22.766  1.00  0.00     0.011 A 
ATOM      8  C   UNL     1      21.652  74.007  23.229  1.00  0.00    -0.017 A 
ATOM      9  C   UNL     1      22.184  72.737  23.492  1.00  0.00     0.023 A 
ATOM     10  C   UNL     1      21.430  71.554  23.268  1.00  0.00     0.043 A 
ENDROOT
BRANCH   1  11
ATOM     11  N   UNL     1      23.204  70.059  23.996  1.00  0.00    -0.365 N 
ATOM     12  H   UNL     1      23.780  70.814  23.641  1.00  0.00     0.162 HD
BRANCH  11  13
ATOM     13  C   UNL     1      23.827  68.763  23.680  1.00  0.00     0.154 C 
BRANCH  13  14
ATOM     14  C   UNL     1      24.382  68.035  24.889  1.00  0.00     0.013 A 
ATOM     15  C   UNL     1      24.993  66.774  24.725  1.00  0.00     0.123 A 
ATOM     16  C   UNL     1      25.535  66.113  25.834  1.00  0.00     0.047 A 
ATOM     17  C   UNL     1      25.490  66.699  27.100  1.00  0.00     0.004 A 
ATOM     18  C   UNL     1      24.370  68.618  26.170  1.00  0.00     0.009 A 
ATOM     19  C   UNL     1      24.912  67.952  27.268  1.00  0.00     0.001 A 
BRANCH  15  20
ATOM     20  O   UNL     1      25.024  66.287  23.442  1.00  0.00    -0.496 OA
ATOM     21  C   UNL     1      24.453  65.004  23.215  1.00  0.00     0.278 C 
ENDBRANCH  15  20
ENDBRANCH  13  14
ENDBRANCH  11  13
ENDBRANCH   1  11
BRANCH   8  22
ATOM     22  C   UNL     1      22.443  75.222  23.462  1.00  0.00    -0.010 A 
ATOM     23  C   UNL     1      23.775  75.250  23.010  1.00  0.00     0.009 A 
ATOM     24  C   UNL     1      21.920  76.364  24.113  1.00  0.00     0.014 A 
ATOM     25  C   UNL     1      24.576  76.376  23.187  1.00  0.00     0.001 A 
ATOM     26  C   UNL     1      22.742  77.500  24.274  1.00  0.00     0.010 A 
ATOM     27  C   UNL     1      24.058  77.503  23.815  1.00  0.00     0.001 A 
BRANCH  24  28
ATOM     28  C   UNL     1      20.512  76.416  24.658  1.00  0.00     0.299 C 
BRANCH  28  29
ATOM     29  N   UNL     1      19.974  77.826  24.810  1.00  0.00    -0.336 N 
ATOM     30  C   UNL     1      18.933  78.134  23.774  1.00  0.00     0.332 C 
ATOM     31  C   UNL     1      19.470  78.108  26.197  1.00  0.00     0.332 C 
ATOM     32  H   UNL     1      20.762  78.462  24.649  1.00  0.00     0.347 HD
ENDBRANCH  28  29
ENDBRANCH  24  28
ENDBRANCH   8  22
TORSDOF 7
ENDMDL
MODEL 6
REMARK VINA RESULT:    -8.331      2.271      7.166
REMARK INTER + INTRA:         -13.092
REMARK INTER:                 -11.715
REMARK INTRA:                  -1.377
REMARK UNBOUND:                -1.351
REMARK SMILES COc1ccccc1CNc1ncnc2ccc(-c3ccccc3C[NH+](C)C)cc12
REMARK SMILES IDX 11 1 12 2 13 3 14 4 15 5 16 6 17 7 18 8 29 9 30 10 10 11
REMARK SMILES IDX 9 13 8 14 3 15 4 16 5 17 7 18 6 19 2 20 1 21 19 22 20 23
REMARK SMILES IDX 24 24 21 25 23 26 22 27 25 28 26 29 27 30 28 31
REMARK H PARENT 10 12 26 32
ROOT
ATOM      1  C   UNL     1      21.262  76.972  24.531  1.00  0.00     0.137 A 
ATOM      2  N   UNL     1      21.578  78.259  24.322  1.00  0.00    -0.219 NA
ATOM      3  C   UNL     1      22.714  78.509  23.663  1.00  0.00     0.224 A 
ATOM      4  N   UNL     1      23.555  77.594  23.169  1.00  0.00    -0.236 NA
ATOM      5  C   UNL     1      23.240  76.318  23.389  1.00  0.00     0.076 A 
ATOM      6  C   UNL     1      24.107  75.336  22.927  1.00  0.00     0.030 A 
ATOM      7  C   UNL     1      23.854  73.974  23.121  1.00  0.00     0.011 A 
ATOM      8  C   UNL     1      22.697  73.557  23.783  1.00  0.00    -0.017 A 
ATOM      9  C   UNL     1      21.825  74.541  24.268  1.00  0.00     0.023 A 
ATOM     10  C   UNL     1      22.082  75.924  24.070  1.00  0.00     0.043 A 
ENDROOT
BRANCH   1  11
ATOM     11  N   UNL     1      20.071  76.656  25.225  1.00  0.00    -0.365 N 
ATOM     12  H   UNL     1      19.487  76.101  24.611  1.00  0.00     0.162 HD
BRANCH  11  13
ATOM     13  C   UNL     1      19.306  77.802  25.743  1.00  0.00     0.154 C 
BRANCH  13  14
ATOM     14  C   UNL     1      18.028  78.088  24.978  1.00  0.00     0.013 A 
ATOM     15  C   UNL     1      16.780  77.892  25.606  1.00  0.00     0.123 A 
ATOM     16  C   UNL     1      15.600  78.185  24.914  1.00  0.00     0.047 A 
ATOM     17  C   UNL     1      15.647  78.685  23.611  1.00  0.00     0.004 A 
ATOM     18  C   UNL     1      18.054  78.615  23.674  1.00  0.00     0.009 A 
ATOM     19  C   UNL     1      16.873  78.904  22.992  1.00  0.00     0.001 A 
BRANCH  15  20
ATOM     20  O   UNL     1      16.827  77.431  26.898  1.00  0.00    -0.496 OA
ATOM     21  C   UNL     1      16.011  76.310  27.222  1.00  0.00     0.278 C 
ENDBRANCH  15  20
ENDBRANCH  13  14
ENDBRANCH  11  13
ENDBRANCH   1  11
BRANCH   8  22
ATOM     22  C   UNL     1      22.419  72.130  23.991  1.00  0.00    -0.010 A 
ATOM     23  C   UNL     1      23.075  71.467  25.043  1.00  0.00     0.009 A 
ATOM     24  C   UNL     1      21.515  71.399  23.183  1.00  0.00     0.014 A 
ATOM     25  C   UNL     1      22.846  70.117  25.304  1.00  0.00     0.001 A 
ATOM     26  C   UNL     1      21.287  70.036  23.468  1.00  0.00     0.010 A 
ATOM     27  C   UNL     1      21.949  69.402  24.519  1.00  0.00     0.001 A 
BRANCH  24  28
ATOM     28  C   UNL     1      20.788  72.018  22.013  1.00  0.00     0.299 C 
BRANCH  28  29
ATOM     29  N   UNL     1      19.291  72.143  22.229  1.00  0.00    -0.336 N 
ATOM     30  C   UNL     1      18.853  73.578  22.239  1.00  0.00     0.332 C 
ATOM     31  C   UNL     1      18.494  71.332  21.247  1.00  0.00     0.332 C 
ATOM     32  H   UNL     1      19.094  71.757  23.158  1.00  0.00     0.347 HD
ENDBRANCH  28  29
ENDBRANCH  24  28
ENDBRANCH   8  22
TORSDOF 7
ENDMDL
MODEL 7
REMARK VINA RESULT:    -8.277      5.761      9.343
REMARK INTER + INTRA:         -13.016
REMARK INTER:                 -11.918
REMARK INTRA:                  -1.098
REMARK UNBOUND:                -1.351
REMARK SMILES COc1ccccc1CNc1ncnc2ccc(-c3ccccc3C[NH+](C)C)cc12
REMARK SMILES IDX 11 1 12 2 13 3 14 4 15 5 16 6 17 7 18 8 29 9 30 10 10 11
REMARK SMILES IDX 9 13 8 14 3 15 4 16 5 17 7 18 6 19 2 20 1 21 19 22 20 23
REMARK SMILES IDX 24 24 21 25 23 26 22 27 25 28 26 29 27 30 28 31
REMARK H PARENT 10 12 26 32
ROOT
ATOM      1  C   UNL     1      22.420  65.801  21.400  1.00  0.00     0.137 A 
ATOM      2  N   UNL     1      22.654  64.686  20.693  1.00  0.00    -0.219 NA
ATOM      3  C   UNL     1      23.639  63.888  21.118  1.00  0.00     0.224 A 
ATOM      4  N   UNL     1      24.399  64.085  22.200  1.00  0.00    -0.236 NA
ATOM      5  C   UNL     1      24.170  65.201  22.893  1.00  0.00     0.076 A 
ATOM      6  C   UNL     1      24.963  65.465  24.001  1.00  0.00     0.030 A 
ATOM      7  C   UNL     1      24.791  66.614  24.779  1.00  0.00     0.011 A 
ATOM      8  C   UNL     1      23.791  67.537  24.465  1.00  0.00    -0.017 A 
ATOM      9  C   UNL     1      22.996  67.288  23.338  1.00  0.00     0.023 A 
ATOM     10  C   UNL     1      23.171  66.120  22.548  1.00  0.00     0.043 A 
ENDROOT
BRANCH   1  11
ATOM     11  N   UNL     1      21.390  66.677  20.990  1.00  0.00    -0.365 N 
ATOM     12  H   UNL     1      20.595  66.118  20.704  1.00  0.00     0.162 HD
BRANCH  11  13
ATOM     13  C   UNL     1      21.743  67.629  19.923  1.00  0.00     0.154 C 
BRANCH  13  14
ATOM     14  C   UNL     1      20.810  67.588  18.728  1.00  0.00     0.013 A 
ATOM     15  C   UNL     1      19.597  68.307  18.765  1.00  0.00     0.123 A 
ATOM     16  C   UNL     1      18.749  68.298  17.651  1.00  0.00     0.047 A 
ATOM     17  C   UNL     1      19.100  67.596  16.497  1.00  0.00     0.004 A 
ATOM     18  C   UNL     1      21.156  66.907  17.547  1.00  0.00     0.009 A 
ATOM     19  C   UNL     1      20.305  66.904  16.443  1.00  0.00     0.001 A 
BRANCH  15  20
ATOM     20  O   UNL     1      19.346  68.998  19.924  1.00  0.00    -0.496 OA
ATOM     21  C   UNL     1      18.699  70.260  19.806  1.00  0.00     0.278 C 
ENDBRANCH  15  20
ENDBRANCH  13  14
ENDBRANCH  11  13
ENDBRANCH   1  11
BRANCH   8  22
ATOM     22  C   UNL     1      23.599  68.747  25.274  1.00  0.00    -0.010 A 
ATOM     23  C   UNL     1      23.746  68.649  26.670  1.00  0.00     0.009 A 
ATOM     24  C   UNL     1      23.278  70.005  24.710  1.00  0.00     0.014 A 
ATOM     25  C   UNL     1      23.591  69.761  27.495  1.00  0.00     0.001 A 
ATOM     26  C   UNL     1      23.135  71.122  25.559  1.00  0.00     0.010 A 
ATOM     27  C   UNL     1      23.289  70.999  26.939  1.00  0.00     0.001 A 
BRANCH  24  28
ATOM     28  C   UNL     1      23.071  70.200  23.227  1.00  0.00     0.299 C 
BRANCH  28  29
ATOM     29  N   UNL     1      21.754  70.872  22.884  1.00  0.00    -0.336 N 
ATOM     30  C   UNL     1      21.751  71.394  21.477  1.00  0.00     0.332 C 
ATOM     31  C   UNL     1      20.567  69.988  23.145  1.00  0.00     0.332 C 
ATOM     32  H   UNL     1      21.662  71.679  23.510  1.00  0.00     0.347 HD
ENDBRANCH  28  29
ENDBRANCH  24  28
ENDBRANCH   8  22
TORSDOF 7
ENDMDL
MODEL 8
REMARK VINA RESULT:    -8.246      2.695      7.916
REMARK INTER + INTRA:         -12.972
REMARK INTER:                 -12.044
REMARK INTRA:                  -0.928
REMARK UNBOUND:                -1.351
REMARK SMILES COc1ccccc1CNc1ncnc2ccc(-c3ccccc3C[NH+](C)C)cc12
REMARK SMILES IDX 11 1 12 2 13 3 14 4 15 5 16 6 17 7 18 8 29 9 30 10 10 11
REMARK SMILES IDX 9 13 8 14 3 15 4 16 5 17 7 18 6 19 2 20 1 21 19 22 20 23
REMARK SMILES IDX 24 24 21 25 23 26 22 27 25 28 26 29 27 30 28 31
REMARK H PARENT 10 12 26 32
ROOT
ATOM      1  C   UNL     1      22.247  72.220  23.899  1.00  0.00     0.137 A 
ATOM      2  N   UNL     1      22.768  72.466  25.110  1.00  0.00    -0.219 NA
ATOM      3  C   UNL     1      23.149  71.412  25.837  1.00  0.00     0.224 A 
ATOM      4  N   UNL     1      23.082  70.131  25.461  1.00  0.00    -0.236 NA
ATOM      5  C   UNL     1      22.552  69.891  24.261  1.00  0.00     0.076 A 
ATOM      6  C   UNL     1      22.427  68.572  23.847  1.00  0.00     0.030 A 
ATOM      7  C   UNL     1      21.878  68.234  22.606  1.00  0.00     0.011 A 
ATOM      8  C   UNL     1      21.446  69.231  21.728  1.00  0.00    -0.017 A 
ATOM      9  C   UNL     1      21.553  70.565  22.145  1.00  0.00     0.023 A 
ATOM     10  C   UNL     1      22.111  70.908  23.406  1.00  0.00     0.043 A 
ENDROOT
BRANCH   1  11
ATOM     11  N   UNL     1      21.828  73.302  23.093  1.00  0.00    -0.365 N 
ATOM     12  H   UNL     1      22.637  73.660  22.599  1.00  0.00     0.162 HD
BRANCH  11  13
ATOM     13  C   UNL     1      21.144  74.400  23.795  1.00  0.00     0.154 C 
BRANCH  13  14
ATOM     14  C   UNL     1      21.882  75.724  23.738  1.00  0.00     0.013 A 
ATOM     15  C   UNL     1      21.218  76.910  24.115  1.00  0.00     0.123 A 
ATOM     16  C   UNL     1      21.906  78.129  24.095  1.00  0.00     0.047 A 
ATOM     17  C   UNL     1      23.250  78.179  23.718  1.00  0.00     0.004 A 
ATOM     18  C   UNL     1      23.242  75.793  23.386  1.00  0.00     0.009 A 
ATOM     19  C   UNL     1      23.919  77.012  23.368  1.00  0.00     0.001 A 
BRANCH  15  20
ATOM     20  O   UNL     1      19.909  76.765  24.505  1.00  0.00    -0.496 OA
ATOM     21  C   UNL     1      19.331  77.824  25.258  1.00  0.00     0.278 C 
ENDBRANCH  15  20
ENDBRANCH  13  14
ENDBRANCH  11  13
ENDBRANCH   1  11
BRANCH   8  22
ATOM     22  C   UNL     1      20.870  68.890  20.422  1.00  0.00    -0.010 A 
ATOM     23  C   UNL     1      21.629  68.096  19.543  1.00  0.00     0.009 A 
ATOM     24  C   UNL     1      19.585  69.320  20.013  1.00  0.00     0.014 A 
ATOM     25  C   UNL     1      21.136  67.725  18.293  1.00  0.00     0.001 A 
ATOM     26  C   UNL     1      19.098  68.927  18.750  1.00  0.00     0.010 A 
ATOM     27  C   UNL     1      19.869  68.137  17.898  1.00  0.00     0.001 A 
BRANCH  24  28
ATOM     28  C   UNL     1      18.712  70.200  20.876  1.00  0.00     0.299 C 
BRANCH  28  29
ATOM     29  N   UNL     1      18.557  71.611  20.340  1.00  0.00    -0.336 N 
ATOM     30  C   UNL     1      17.262  71.782  19.602  1.00  0.00     0.332 C 
ATOM     31  C   UNL     1      18.725  72.657  21.406  1.00  0.00     0.332 C 
ATOM     32  H   UNL     1      19.316  71.755  19.665  1.00  0.00     0.347 HD
ENDBRANCH  28  29
ENDBRANCH  24  28
ENDBRANCH   8  22
TORSDOF 7
ENDMDL
MODEL 9
REMARK VINA RESULT:    -8.194      5.373     11.452
REMARK INTER + INTRA:         -12.899
REMARK INTER:                 -11.644
REMARK INTRA:                  -1.255
REMARK UNBOUND:                -1.351
REMARK SMILES COc1ccccc1CNc1ncnc2ccc(-c3ccccc3C[NH+](C)C)cc12
REMARK SMILES IDX 11 1 12 2 13 3 14 4 15 5 16 6 17 7 18 8 29 9 30 10 10 11
REMARK SMILES IDX 9 13 8 14 3 15 4 16 5 17 7 18 6 19 2 20 1 21 19 22 20 23
REMARK SMILES IDX 24 24 21 25 23 26 22 27 25 28 26 29 27 30 28 31
REMARK H PARENT 10 12 26 32
ROOT
ATOM      1  C   UNL     1      24.470  68.286  24.949  1.00  0.00     0.137 A 
ATOM      2  N   UNL     1      24.932  68.677  26.145  1.00  0.00    -0.219 NA
ATOM      3  C   UNL     1      25.508  67.746  26.912  1.00  0.00     0.224 A 
ATOM      4  N   UNL     1      25.689  66.462  26.587  1.00  0.00    -0.236 NA
ATOM      5  C   UNL     1      25.218  66.076  25.402  1.00  0.00     0.076 A 
ATOM      6  C   UNL     1      25.350  64.742  25.041  1.00  0.00     0.030 A 
ATOM      7  C   UNL     1      24.879  64.254  23.818  1.00  0.00     0.011 A 
ATOM      8  C   UNL     1      24.265  65.113  22.904  1.00  0.00    -0.017 A 
ATOM      9  C   UNL     1      24.112  66.458  23.266  1.00  0.00     0.023 A 
ATOM     10  C   UNL     1      24.591  66.953  24.509  1.00  0.00     0.043 A 
ENDROOT
BRANCH   1  11
ATOM     11  N   UNL     1      23.852  69.233  24.102  1.00  0.00    -0.365 N 
ATOM     12  H   UNL     1      24.257  70.141  24.295  1.00  0.00     0.162 HD
BRANCH  11  13
ATOM     13  C   UNL     1      22.384  69.311  24.187  1.00  0.00     0.154 C 
BRANCH  13  14
ATOM     14  C   UNL     1      21.693  69.440  22.843  1.00  0.00     0.013 A 
ATOM     15  C   UNL     1      21.605  70.703  22.222  1.00  0.00     0.123 A 
ATOM     16  C   UNL     1      20.996  70.820  20.967  1.00  0.00     0.047 A 
ATOM     17  C   UNL     1      20.489  69.693  20.317  1.00  0.00     0.004 A 
ATOM     18  C   UNL     1      21.198  68.314  22.160  1.00  0.00     0.009 A 
ATOM     19  C   UNL     1      20.593  68.440  20.911  1.00  0.00     0.001 A 
BRANCH  15  20
ATOM     20  O   UNL     1      22.159  71.751  22.915  1.00  0.00    -0.496 OA
ATOM     21  C   UNL     1      21.271  72.732  23.436  1.00  0.00     0.278 C 
ENDBRANCH  15  20
ENDBRANCH  13  14
ENDBRANCH  11  13
ENDBRANCH   1  11
BRANCH   8  22
ATOM     22  C   UNL     1      23.768  64.615  21.615  1.00  0.00    -0.010 A 
ATOM     23  C   UNL     1      22.440  64.905  21.253  1.00  0.00     0.009 A 
ATOM     24  C   UNL     1      24.569  63.864  20.722  1.00  0.00     0.014 A 
ATOM     25  C   UNL     1      21.910  64.474  20.039  1.00  0.00     0.001 A 
ATOM     26  C   UNL     1      24.019  63.445  19.493  1.00  0.00     0.010 A 
ATOM     27  C   UNL     1      22.700  63.747  19.156  1.00  0.00     0.001 A 
BRANCH  24  28
ATOM     28  C   UNL     1      25.995  63.479  21.038  1.00  0.00     0.299 C 
BRANCH  28  29
ATOM     29  N   UNL     1      26.616  62.557  20.005  1.00  0.00    -0.336 N 
ATOM     30  C   UNL     1      27.331  63.328  18.936  1.00  0.00     0.332 C 
ATOM     31  C   UNL     1      27.505  61.513  20.620  1.00  0.00     0.332 C 
ATOM     32  H   UNL     1      25.842  62.055  19.555  1.00  0.00     0.347 HD
ENDBRANCH  28  29
ENDBRANCH  24  28
ENDBRANCH   8  22
TORSDOF 7
ENDMDL
MODEL 10
REMARK VINA RESULT:    -8.093      2.206      4.545
REMARK INTER + INTRA:         -12.757
REMARK INTER:                 -11.831
REMARK INTRA:                  -0.926
REMARK UNBOUND:                -1.351
REMARK SMILES COc1ccccc1CNc1ncnc2ccc(-c3ccccc3C[NH+](C)C)cc12
REMARK SMILES IDX 11 1 12 2 13 3 14 4 15 5 16 6 17 7 18 8 29 9 30 10 10 11
REMARK SMILES IDX 9 13 8 14 3 15 4 16 5 17 7 18 6 19 2 20 1 21 19 22 20 23
REMARK SMILES IDX 24 24 21 25 23 26 22 27 25 28 26 29 27 30 28 31
REMARK H PARENT 10 12 26 32
ROOT
ATOM      1  C   UNL     1      20.398  70.975  22.968  1.00  0.00     0.137 A 
ATOM      2  N   UNL     1      19.722  69.981  22.373  1.00  0.00    -0.219 NA
ATOM      3  C   UNL     1      18.698  70.324  21.586  1.00  0.00     0.224 A 
ATOM      4  N   UNL     1      18.296  71.570  21.316  1.00  0.00    -0.236 NA
ATOM      5  C   UNL     1      18.965  72.554  21.918  1.00  0.00     0.076 A 
ATOM      6  C   UNL     1      18.556  73.863  21.696  1.00  0.00     0.030 A 
ATOM      7  C   UNL     1      19.199  74.951  22.293  1.00  0.00     0.011 A 
ATOM      8  C   UNL     1      20.297  74.750  23.132  1.00  0.00    -0.017 A 
ATOM      9  C   UNL     1      20.707  73.432  23.376  1.00  0.00     0.023 A 
ATOM     10  C   UNL     1      20.053  72.327  22.769  1.00  0.00     0.043 A 
ENDROOT
BRANCH   1  11
ATOM     11  N   UNL     1      21.489  70.663  23.810  1.00  0.00    -0.365 N 
ATOM     12  H   UNL     1      21.671  71.466  24.401  1.00  0.00     0.162 HD
BRANCH  11  13
ATOM     13  C   UNL     1      22.728  70.250  23.131  1.00  0.00     0.154 C 
BRANCH  13  14
ATOM     14  C   UNL     1      23.520  69.196  23.880  1.00  0.00     0.013 A 
ATOM     15  C   UNL     1      24.011  69.480  25.173  1.00  0.00     0.123 A 
ATOM     16  C   UNL     1      24.715  68.499  25.880  1.00  0.00     0.047 A 
ATOM     17  C   UNL     1      24.924  67.235  25.323  1.00  0.00     0.004 A 
ATOM     18  C   UNL     1      23.721  67.910  23.348  1.00  0.00     0.009 A 
ATOM     19  C   UNL     1      24.424  66.939  24.060  1.00  0.00     0.001 A 
BRANCH  15  20
ATOM     20  O   UNL     1      23.730  70.734  25.657  1.00  0.00    -0.496 OA
ATOM     21  C   UNL     1      23.146  70.818  26.951  1.00  0.00     0.278 C 
ENDBRANCH  15  20
ENDBRANCH  13  14
ENDBRANCH  11  13
ENDBRANCH   1  11
BRANCH   8  22
ATOM     22  C   UNL     1      20.983  75.885  23.764  1.00  0.00    -0.010 A 
ATOM     23  C   UNL     1      22.390  75.906  23.752  1.00  0.00     0.009 A 
ATOM     24  C   UNL     1      20.290  76.957  24.376  1.00  0.00     0.014 A 
ATOM     25  C   UNL     1      23.102  76.960  24.322  1.00  0.00     0.001 A 
ATOM     26  C   UNL     1      21.028  78.020  24.937  1.00  0.00     0.010 A 
ATOM     27  C   UNL     1      22.422  78.019  24.911  1.00  0.00     0.001 A 
BRANCH  24  28
ATOM     28  C   UNL     1      18.783  77.005  24.463  1.00  0.00     0.299 C 
BRANCH  28  29
ATOM     29  N   UNL     1      18.256  78.259  25.134  1.00  0.00    -0.336 N 
ATOM     30  C   UNL     1      17.496  79.123  24.171  1.00  0.00     0.332 C 
ATOM     31  C   UNL     1      17.445  77.962  26.364  1.00  0.00     0.332 C 
ATOM     32  H   UNL     1      19.075  78.794  25.444  1.00  0.00     0.347 HD
ENDBRANCH  28  29
ENDBRANCH  24  28
ENDBRANCH   8  22
TORSDOF 7
ENDMDL
