MODEL 1
REMARK VINA RESULT:    -7.496      0.000      0.000
REMARK INTER + INTRA:         -10.250
REMARK INTER:                  -9.687
REMARK INTRA:                  -0.564
REMARK UNBOUND:                -0.564
REMARK SMILES COc1ccc(C[NH+]2CCN(c3cccc(C)c3C)CC2)cc1OC
REMARK SMILES IDX 7 1 6 2 3 3 4 4 23 5 5 6 22 7 2 8 1 9 24 10 25 11 8 12 9 13
REMARK SMILES IDX 21 14 10 15 20 16 11 17 12 19 13 20 18 21 14 22 16 23 15 24
REMARK SMILES IDX 19 25 17 26
REMARK H PARENT 8 18
ROOT
ATOM      1  C   UNL     1      20.254  73.311  22.720  1.00  0.00     0.299 C 
ENDROOT
BRANCH   1   2
ATOM      2  C   UNL     1      19.967  74.752  23.031  1.00  0.00     0.010 A 
ATOM      3  C   UNL     1      19.500  77.499  23.555  1.00  0.00     0.160 A 
ATOM      4  C   UNL     1      18.593  76.742  22.800  1.00  0.00     0.051 A 
ATOM      5  C   UNL     1      20.642  76.863  24.070  1.00  0.00     0.161 A 
ATOM      6  C   UNL     1      18.821  75.385  22.541  1.00  0.00     0.013 A 
ATOM      7  C   UNL     1      20.866  75.505  23.797  1.00  0.00     0.060 A 
BRANCH   3   8
ATOM      8  O   UNL     1      19.351  78.838  23.789  1.00  0.00    -0.493 OA
ATOM      9  C   UNL     1      18.626  79.250  24.942  1.00  0.00     0.278 C 
ENDBRANCH   3   8
BRANCH   5  10
ATOM     10  O   UNL     1      21.654  77.413  24.813  1.00  0.00    -0.493 OA
ATOM     11  C   UNL     1      22.668  78.133  24.122  1.00  0.00     0.278 C 
ENDBRANCH   5  10
ENDBRANCH   1   2
BRANCH   1  12
ATOM     12  N   UNL     1      21.241  72.688  23.680  1.00  0.00    -0.328 N 
ATOM     13  C   UNL     1      22.539  72.254  23.004  1.00  0.00     0.284 C 
ATOM     14  C   UNL     1      20.680  71.535  24.512  1.00  0.00     0.284 C 
ATOM     15  C   UNL     1      22.330  71.003  22.129  1.00  0.00     0.178 C 
ATOM     16  C   UNL     1      20.501  70.251  23.678  1.00  0.00     0.178 C 
ATOM     17  N   UNL     1      21.698  69.908  22.889  1.00  0.00    -0.360 N 
ATOM     18  H   UNL     1      21.489  73.426  24.349  1.00  0.00     0.348 HD
BRANCH  17  19
ATOM     19  C   UNL     1      22.580  68.923  23.350  1.00  0.00     0.040 A 
ATOM     20  C   UNL     1      23.474  69.171  24.406  1.00  0.00     0.026 A 
ATOM     21  C   UNL     1      22.602  67.636  22.747  1.00  0.00    -0.025 A 
ATOM     22  C   UNL     1      24.397  68.213  24.823  1.00  0.00     0.002 A 
ATOM     23  C   UNL     1      23.569  66.677  23.146  1.00  0.00    -0.046 A 
ATOM     24  C   UNL     1      24.451  66.978  24.190  1.00  0.00     0.004 A 
ATOM     25  C   UNL     1      21.593  67.259  21.684  1.00  0.00     0.047 C 
ATOM     26  C   UNL     1      23.647  65.311  22.513  1.00  0.00     0.044 C 
ENDBRANCH  17  19
ENDBRANCH   1  12
TORSDOF 5
ENDMDL
MODEL 2
REMARK VINA RESULT:    -7.443      5.604      7.038
REMARK INTER + INTRA:         -10.182
REMARK INTER:                  -9.638
REMARK INTRA:                  -0.544
REMARK UNBOUND:                -0.564
REMARK SMILES COc1ccc(C[NH+]2CCN(c3cccc(C)c3C)CC2)cc1OC
REMARK SMILES IDX 7 1 6 2 3 3 4 4 23 5 5 6 22 7 2 8 1 9 24 10 25 11 8 12 9 13
REMARK SMILES IDX 21 14 10 15 20 16 11 17 12 19 13 20 18 21 14 22 16 23 15 24
REMARK SMILES IDX 19 25 17 26
REMARK H PARENT 8 18
ROOT
ATOM      1  C   UNL     1      20.159  70.070  20.898  1.00  0.00     0.299 C 
ENDROOT
BRANCH   1   2
ATOM      2  C   UNL     1      19.147  70.016  19.789  1.00  0.00     0.010 A 
ATOM      3  C   UNL     1      17.190  69.838  17.746  1.00  0.00     0.160 A 
ATOM      4  C   UNL     1      17.228  70.935  18.619  1.00  0.00     0.051 A 
ATOM      5  C   UNL     1      18.159  68.832  17.889  1.00  0.00     0.161 A 
ATOM      6  C   UNL     1      18.194  71.026  19.628  1.00  0.00     0.013 A 
ATOM      7  C   UNL     1      19.118  68.927  18.909  1.00  0.00     0.060 A 
BRANCH   3   8
ATOM      8  O   UNL     1      16.234  69.677  16.782  1.00  0.00    -0.493 OA
ATOM      9  C   UNL     1      14.871  69.881  17.135  1.00  0.00     0.278 C 
ENDBRANCH   3   8
BRANCH   5  10
ATOM     10  O   UNL     1      18.295  67.679  17.161  1.00  0.00    -0.493 OA
ATOM     11  C   UNL     1      19.597  67.115  17.048  1.00  0.00     0.278 C 
ENDBRANCH   5  10
ENDBRANCH   1   2
BRANCH   1  12
ATOM     12  N   UNL     1      21.138  68.920  20.857  1.00  0.00    -0.328 N 
ATOM     13  C   UNL     1      20.870  67.867  21.929  1.00  0.00     0.284 C 
ATOM     14  C   UNL     1      22.609  69.334  20.895  1.00  0.00     0.284 C 
ATOM     15  C   UNL     1      21.254  68.376  23.331  1.00  0.00     0.178 C 
ATOM     16  C   UNL     1      23.043  69.807  22.298  1.00  0.00     0.178 C 
ATOM     17  N   UNL     1      22.644  68.873  23.366  1.00  0.00    -0.360 N 
ATOM     18  H   UNL     1      20.997  68.461  19.950  1.00  0.00     0.348 HD
BRANCH  17  19
ATOM     19  C   UNL     1      23.579  67.975  23.895  1.00  0.00     0.040 A 
ATOM     20  C   UNL     1      23.922  66.789  23.224  1.00  0.00     0.026 A 
ATOM     21  C   UNL     1      24.203  68.237  25.144  1.00  0.00    -0.025 A 
ATOM     22  C   UNL     1      24.803  65.863  23.779  1.00  0.00     0.002 A 
ATOM     23  C   UNL     1      25.069  67.275  25.726  1.00  0.00    -0.046 A 
ATOM     24  C   UNL     1      25.365  66.100  25.027  1.00  0.00     0.004 A 
ATOM     25  C   UNL     1      23.971  69.545  25.869  1.00  0.00     0.047 C 
ATOM     26  C   UNL     1      25.729  67.500  27.062  1.00  0.00     0.044 C 
ENDBRANCH  17  19
ENDBRANCH   1  12
TORSDOF 5
ENDMDL
MODEL 3
REMARK VINA RESULT:    -7.413      3.832      5.201
REMARK INTER + INTRA:         -10.143
REMARK INTER:                  -9.710
REMARK INTRA:                  -0.433
REMARK UNBOUND:                -0.564
REMARK SMILES COc1ccc(C[NH+]2CCN(c3cccc(C)c3C)CC2)cc1OC
REMARK SMILES IDX 7 1 6 2 3 3 4 4 23 5 5 6 22 7 2 8 1 9 24 10 25 11 8 12 9 13
REMARK SMILES IDX 21 14 10 15 20 16 11 17 12 19 13 20 18 21 14 22 16 23 15 24
REMARK SMILES IDX 19 25 17 26
REMARK H PARENT 8 18
ROOT
ATOM      1  C   UNL     1      20.416  70.496  20.061  1.00  0.00     0.299 C 
ENDROOT
BRANCH   1   2
ATOM      2  C   UNL     1      19.004  70.898  19.746  1.00  0.00     0.010 A 
ATOM      3  C   UNL     1      16.372  71.748  19.122  1.00  0.00     0.160 A 
ATOM      4  C   UNL     1      17.026  70.784  18.341  1.00  0.00     0.051 A 
ATOM      5  C   UNL     1      17.041  72.273  20.240  1.00  0.00     0.161 A 
ATOM      6  C   UNL     1      18.325  70.362  18.648  1.00  0.00     0.013 A 
ATOM      7  C   UNL     1      18.346  71.850  20.534  1.00  0.00     0.060 A 
BRANCH   3   8
ATOM      8  O   UNL     1      15.127  72.233  18.832  1.00  0.00    -0.493 OA
ATOM      9  C   UNL     1      14.163  71.344  18.280  1.00  0.00     0.278 C 
ENDBRANCH   3   8
BRANCH   5  10
ATOM     10  O   UNL     1      16.597  73.225  21.121  1.00  0.00    -0.493 OA
ATOM     11  C   UNL     1      17.144  73.219  22.434  1.00  0.00     0.278 C 
ENDBRANCH   5  10
ENDBRANCH   1   2
BRANCH   1  12
ATOM     12  N   UNL     1      20.823  70.835  21.476  1.00  0.00    -0.328 N 
ATOM     13  C   UNL     1      22.325  71.062  21.627  1.00  0.00     0.284 C 
ATOM     14  C   UNL     1      20.340  69.844  22.534  1.00  0.00     0.284 C 
ATOM     15  C   UNL     1      23.109  69.740  21.531  1.00  0.00     0.178 C 
ATOM     16  C   UNL     1      21.135  68.523  22.498  1.00  0.00     0.178 C 
ATOM     17  N   UNL     1      22.594  68.733  22.479  1.00  0.00    -0.360 N 
ATOM     18  H   UNL     1      20.366  71.728  21.695  1.00  0.00     0.348 HD
BRANCH  17  19
ATOM     19  C   UNL     1      23.334  68.599  23.660  1.00  0.00     0.040 A 
ATOM     20  C   UNL     1      23.463  69.660  24.572  1.00  0.00     0.026 A 
ATOM     21  C   UNL     1      23.993  67.377  23.963  1.00  0.00    -0.025 A 
ATOM     22  C   UNL     1      24.252  69.549  25.716  1.00  0.00     0.002 A 
ATOM     23  C   UNL     1      24.828  67.279  25.106  1.00  0.00    -0.046 A 
ATOM     24  C   UNL     1      24.938  68.370  25.975  1.00  0.00     0.004 A 
ATOM     25  C   UNL     1      23.807  66.157  23.087  1.00  0.00     0.047 C 
ATOM     26  C   UNL     1      25.567  66.012  25.449  1.00  0.00     0.044 C 
ENDBRANCH  17  19
ENDBRANCH   1  12
TORSDOF 5
ENDMDL
MODEL 4
REMARK VINA RESULT:    -7.244      5.042      6.745
REMARK INTER + INTRA:          -9.925
REMARK INTER:                  -9.333
REMARK INTRA:                  -0.592
REMARK UNBOUND:                -0.564
REMARK SMILES COc1ccc(C[NH+]2CCN(c3cccc(C)c3C)CC2)cc1OC
REMARK SMILES IDX 7 1 6 2 3 3 4 4 23 5 5 6 22 7 2 8 1 9 24 10 25 11 8 12 9 13
REMARK SMILES IDX 21 14 10 15 20 16 11 17 12 19 13 20 18 21 14 22 16 23 15 24
REMARK SMILES IDX 19 25 17 26
REMARK H PARENT 8 18
ROOT
ATOM      1  C   UNL     1      20.028  69.873  20.808  1.00  0.00     0.299 C 
ENDROOT
BRANCH   1   2
ATOM      2  C   UNL     1      19.028  69.777  19.691  1.00  0.00     0.010 A 
ATOM      3  C   UNL     1      17.195  69.667  17.532  1.00  0.00     0.160 A 
ATOM      4  C   UNL     1      18.074  68.606  17.789  1.00  0.00     0.051 A 
ATOM      5  C   UNL     1      17.223  70.785  18.381  1.00  0.00     0.161 A 
ATOM      6  C   UNL     1      18.979  68.657  18.856  1.00  0.00     0.013 A 
ATOM      7  C   UNL     1      18.141  70.832  19.442  1.00  0.00     0.060 A 
BRANCH   3   8
ATOM      8  O   UNL     1      16.332  69.688  16.471  1.00  0.00    -0.493 OA
ATOM      9  C   UNL     1      16.831  70.071  15.195  1.00  0.00     0.278 C 
ENDBRANCH   3   8
BRANCH   5  10
ATOM     10  O   UNL     1      16.469  71.927  18.302  1.00  0.00    -0.493 OA
ATOM     11  C   UNL     1      16.446  72.786  19.437  1.00  0.00     0.278 C 
ENDBRANCH   5  10
ENDBRANCH   1   2
BRANCH   1  12
ATOM     12  N   UNL     1      20.996  68.713  20.831  1.00  0.00    -0.328 N 
ATOM     13  C   UNL     1      20.769  67.769  22.008  1.00  0.00     0.284 C 
ATOM     14  C   UNL     1      22.470  69.112  20.765  1.00  0.00     0.284 C 
ATOM     15  C   UNL     1      21.221  68.402  23.338  1.00  0.00     0.178 C 
ATOM     16  C   UNL     1      22.971  69.709  22.096  1.00  0.00     0.178 C 
ATOM     17  N   UNL     1      22.614  68.883  23.264  1.00  0.00    -0.360 N 
ATOM     18  H   UNL     1      20.810  68.173  19.979  1.00  0.00     0.348 HD
BRANCH  17  19
ATOM     19  C   UNL     1      23.565  68.028  23.832  1.00  0.00     0.040 A 
ATOM     20  C   UNL     1      23.960  66.839  23.196  1.00  0.00     0.026 A 
ATOM     21  C   UNL     1      24.154  68.338  25.088  1.00  0.00    -0.025 A 
ATOM     22  C   UNL     1      24.859  65.955  23.791  1.00  0.00     0.002 A 
ATOM     23  C   UNL     1      25.037  67.418  25.710  1.00  0.00    -0.046 A 
ATOM     24  C   UNL     1      25.386  66.238  25.044  1.00  0.00     0.004 A 
ATOM     25  C   UNL     1      23.865  69.654  25.777  1.00  0.00     0.047 C 
ATOM     26  C   UNL     1      25.661  67.694  27.053  1.00  0.00     0.044 C 
ENDBRANCH  17  19
ENDBRANCH   1  12
TORSDOF 5
ENDMDL
MODEL 5
REMARK VINA RESULT:    -7.222      4.914      8.082
REMARK INTER + INTRA:          -9.897
REMARK INTER:                  -9.268
REMARK INTRA:                  -0.628
REMARK UNBOUND:                -0.564
REMARK SMILES COc1ccc(C[NH+]2CCN(c3cccc(C)c3C)CC2)cc1OC
REMARK SMILES IDX 7 1 6 2 3 3 4 4 23 5 5 6 22 7 2 8 1 9 24 10 25 11 8 12 9 13
REMARK SMILES IDX 21 14 10 15 20 16 11 17 12 19 13 20 18 21 14 22 16 23 15 24
REMARK SMILES IDX 19 25 17 26
REMARK H PARENT 8 18
ROOT
ATOM      1  C   UNL     1      21.221  68.635  22.819  1.00  0.00     0.299 C 
ENDROOT
BRANCH   1   2
ATOM      2  C   UNL     1      22.450  68.520  23.675  1.00  0.00     0.010 A 
ATOM      3  C   UNL     1      24.709  68.282  25.371  1.00  0.00     0.160 A 
ATOM      4  C   UNL     1      24.425  67.308  24.403  1.00  0.00     0.051 A 
ATOM      5  C   UNL     1      23.861  69.397  25.472  1.00  0.00     0.161 A 
ATOM      6  C   UNL     1      23.310  67.424  23.564  1.00  0.00     0.013 A 
ATOM      7  C   UNL     1      22.742  69.500  24.632  1.00  0.00     0.060 A 
BRANCH   3   8
ATOM      8  O   UNL     1      25.752  68.187  26.250  1.00  0.00    -0.493 OA
ATOM      9  C   UNL     1      25.627  67.308  27.361  1.00  0.00     0.278 C 
ENDBRANCH   3   8
BRANCH   5  10
ATOM     10  O   UNL     1      23.946  70.447  26.348  1.00  0.00    -0.493 OA
ATOM     11  C   UNL     1      22.730  71.031  26.804  1.00  0.00     0.278 C 
ENDBRANCH   5  10
ENDBRANCH   1   2
BRANCH   1  12
ATOM     12  N   UNL     1      21.324  69.734  21.788  1.00  0.00    -0.328 N 
ATOM     13  C   UNL     1      19.966  70.188  21.260  1.00  0.00     0.284 C 
ATOM     14  C   UNL     1      22.256  69.423  20.617  1.00  0.00     0.284 C 
ATOM     15  C   UNL     1      19.338  69.132  20.331  1.00  0.00     0.178 C 
ATOM     16  C   UNL     1      21.640  68.403  19.639  1.00  0.00     0.178 C 
ATOM     17  N   UNL     1      20.261  68.745  19.247  1.00  0.00    -0.360 N 
ATOM     18  H   UNL     1      21.737  70.539  22.272  1.00  0.00     0.348 HD
BRANCH  17  19
ATOM     19  C   UNL     1      20.018  69.364  18.015  1.00  0.00     0.040 A 
ATOM     20  C   UNL     1      20.432  70.682  17.758  1.00  0.00     0.026 A 
ATOM     21  C   UNL     1      19.327  68.671  16.984  1.00  0.00    -0.025 A 
ATOM     22  C   UNL     1      20.134  71.321  16.556  1.00  0.00     0.002 A 
ATOM     23  C   UNL     1      18.989  69.337  15.777  1.00  0.00    -0.046 A 
ATOM     24  C   UNL     1      19.409  70.656  15.576  1.00  0.00     0.004 A 
ATOM     25  C   UNL     1      18.951  67.214  17.145  1.00  0.00     0.047 C 
ATOM     26  C   UNL     1      18.233  68.649  14.671  1.00  0.00     0.044 C 
ENDBRANCH  17  19
ENDBRANCH   1  12
TORSDOF 5
ENDMDL
MODEL 6
REMARK VINA RESULT:    -7.108      5.626      8.720
REMARK INTER + INTRA:          -9.750
REMARK INTER:                  -9.121
REMARK INTRA:                  -0.629
REMARK UNBOUND:                -0.564
REMARK SMILES COc1ccc(C[NH+]2CCN(c3cccc(C)c3C)CC2)cc1OC
REMARK SMILES IDX 7 1 6 2 3 3 4 4 23 5 5 6 22 7 2 8 1 9 24 10 25 11 8 12 9 13
REMARK SMILES IDX 21 14 10 15 20 16 11 17 12 19 13 20 18 21 14 22 16 23 15 24
REMARK SMILES IDX 19 25 17 26
REMARK H PARENT 8 18
ROOT
ATOM      1  C   UNL     1      21.358  68.272  22.553  1.00  0.00     0.299 C 
ENDROOT
BRANCH   1   2
ATOM      2  C   UNL     1      22.481  68.217  23.549  1.00  0.00     0.010 A 
ATOM      3  C   UNL     1      24.664  68.145  25.356  1.00  0.00     0.160 A 
ATOM      4  C   UNL     1      23.678  69.137  25.452  1.00  0.00     0.051 A 
ATOM      5  C   UNL     1      24.539  67.167  24.356  1.00  0.00     0.161 A 
ATOM      6  C   UNL     1      22.599  69.175  24.561  1.00  0.00     0.013 A 
ATOM      7  C   UNL     1      23.458  67.218  23.462  1.00  0.00     0.060 A 
BRANCH   3   8
ATOM      8  O   UNL     1      25.765  68.098  26.166  1.00  0.00    -0.493 OA
ATOM      9  C   UNL     1      25.684  67.365  27.382  1.00  0.00     0.278 C 
ENDBRANCH   3   8
BRANCH   5  10
ATOM     10  O   UNL     1      25.387  66.127  24.079  1.00  0.00    -0.493 OA
ATOM     11  C   UNL     1      24.877  64.804  24.200  1.00  0.00     0.278 C 
ENDBRANCH   5  10
ENDBRANCH   1   2
BRANCH   1  12
ATOM     12  N   UNL     1      21.476  69.437  21.598  1.00  0.00    -0.328 N 
ATOM     13  C   UNL     1      20.122  69.979  21.148  1.00  0.00     0.284 C 
ATOM     14  C   UNL     1      22.360  69.175  20.378  1.00  0.00     0.284 C 
ATOM     15  C   UNL     1      19.424  69.017  20.167  1.00  0.00     0.178 C 
ATOM     16  C   UNL     1      21.674  68.251  19.352  1.00  0.00     0.178 C 
ATOM     17  N   UNL     1      20.299  68.674  19.030  1.00  0.00    -0.360 N 
ATOM     18  H   UNL     1      21.935  70.189  22.124  1.00  0.00     0.348 HD
BRANCH  17  19
ATOM     19  C   UNL     1      20.045  69.388  17.852  1.00  0.00     0.040 A 
ATOM     20  C   UNL     1      20.547  70.686  17.656  1.00  0.00     0.026 A 
ATOM     21  C   UNL     1      19.253  68.817  16.819  1.00  0.00    -0.025 A 
ATOM     22  C   UNL     1      20.241  71.423  16.513  1.00  0.00     0.002 A 
ATOM     23  C   UNL     1      18.910  69.583  15.675  1.00  0.00    -0.046 A 
ATOM     24  C   UNL     1      19.420  70.879  15.534  1.00  0.00     0.004 A 
ATOM     25  C   UNL     1      18.774  67.384  16.910  1.00  0.00     0.047 C 
ATOM     26  C   UNL     1      18.050  69.027  14.570  1.00  0.00     0.044 C 
ENDBRANCH  17  19
ENDBRANCH   1  12
TORSDOF 5
ENDMDL
MODEL 7
REMARK VINA RESULT:    -7.073      4.858      6.451
REMARK INTER + INTRA:          -9.703
REMARK INTER:                  -9.095
REMARK INTRA:                  -0.608
REMARK UNBOUND:                -0.564
REMARK SMILES COc1ccc(C[NH+]2CCN(c3cccc(C)c3C)CC2)cc1OC
REMARK SMILES IDX 7 1 6 2 3 3 4 4 23 5 5 6 22 7 2 8 1 9 24 10 25 11 8 12 9 13
REMARK SMILES IDX 21 14 10 15 20 16 11 17 12 19 13 20 18 21 14 22 16 23 15 24
REMARK SMILES IDX 19 25 17 26
REMARK H PARENT 8 18
ROOT
ATOM      1  C   UNL     1      20.670  69.812  19.440  1.00  0.00     0.299 C 
ENDROOT
BRANCH   1   2
ATOM      2  C   UNL     1      19.299  69.876  18.830  1.00  0.00     0.010 A 
ATOM      3  C   UNL     1      16.750  70.056  17.603  1.00  0.00     0.160 A 
ATOM      4  C   UNL     1      17.486  68.864  17.570  1.00  0.00     0.051 A 
ATOM      5  C   UNL     1      17.292  71.162  18.279  1.00  0.00     0.161 A 
ATOM      6  C   UNL     1      18.745  68.772  18.176  1.00  0.00     0.013 A 
ATOM      7  C   UNL     1      18.558  71.063  18.875  1.00  0.00     0.060 A 
BRANCH   3   8
ATOM      8  O   UNL     1      15.543  70.212  16.981  1.00  0.00    -0.493 OA
ATOM      9  C   UNL     1      14.365  69.810  17.669  1.00  0.00     0.278 C 
ENDBRANCH   3   8
BRANCH   5  10
ATOM     10  O   UNL     1      16.753  72.415  18.419  1.00  0.00    -0.493 OA
ATOM     11  C   UNL     1      17.221  73.439  17.549  1.00  0.00     0.278 C 
ENDBRANCH   5  10
ENDBRANCH   1   2
BRANCH   1  12
ATOM     12  N   UNL     1      20.766  70.562  20.749  1.00  0.00    -0.328 N 
ATOM     13  C   UNL     1      22.182  71.041  21.060  1.00  0.00     0.284 C 
ATOM     14  C   UNL     1      20.195  69.816  21.955  1.00  0.00     0.284 C 
ATOM     15  C   UNL     1      23.100  69.870  21.460  1.00  0.00     0.178 C 
ATOM     16  C   UNL     1      21.113  68.664  22.413  1.00  0.00     0.178 C 
ATOM     17  N   UNL     1      22.520  69.077  22.560  1.00  0.00    -0.360 N 
ATOM     18  H   UNL     1      20.188  71.402  20.636  1.00  0.00     0.348 HD
BRANCH  17  19
ATOM     19  C   UNL     1      23.034  69.364  23.831  1.00  0.00     0.040 A 
ATOM     20  C   UNL     1      22.733  70.566  24.493  1.00  0.00     0.026 A 
ATOM     21  C   UNL     1      23.895  68.441  24.485  1.00  0.00    -0.025 A 
ATOM     22  C   UNL     1      23.296  70.882  25.728  1.00  0.00     0.002 A 
ATOM     23  C   UNL     1      24.498  68.782  25.724  1.00  0.00    -0.046 A 
ATOM     24  C   UNL     1      24.180  70.000  26.335  1.00  0.00     0.004 A 
ATOM     25  C   UNL     1      24.172  67.079  23.886  1.00  0.00     0.047 C 
ATOM     26  C   UNL     1      25.438  67.845  26.438  1.00  0.00     0.044 C 
ENDBRANCH  17  19
ENDBRANCH   1  12
TORSDOF 5
ENDMDL
MODEL 8
REMARK VINA RESULT:    -6.944      4.749      8.349
REMARK INTER + INTRA:          -9.538
REMARK INTER:                  -8.948
REMARK INTRA:                  -0.589
REMARK UNBOUND:                -0.564
REMARK SMILES COc1ccc(C[NH+]2CCN(c3cccc(C)c3C)CC2)cc1OC
REMARK SMILES IDX 7 1 6 2 3 3 4 4 23 5 5 6 22 7 2 8 1 9 24 10 25 11 8 12 9 13
REMARK SMILES IDX 21 14 10 15 20 16 11 17 12 19 13 20 18 21 14 22 16 23 15 24
REMARK SMILES IDX 19 25 17 26
REMARK H PARENT 8 18
ROOT
ATOM      1  C   UNL     1      21.577  68.531  22.491  1.00  0.00     0.299 C 
ENDROOT
BRANCH   1   2
ATOM      2  C   UNL     1      22.736  68.418  23.439  1.00  0.00     0.010 A 
ATOM      3  C   UNL     1      24.858  68.194  25.305  1.00  0.00     0.160 A 
ATOM      4  C   UNL     1      24.595  67.171  24.383  1.00  0.00     0.051 A 
ATOM      5  C   UNL     1      24.060  69.349  25.274  1.00  0.00     0.161 A 
ATOM      6  C   UNL     1      23.548  67.280  23.459  1.00  0.00     0.013 A 
ATOM      7  C   UNL     1      23.008  69.446  24.351  1.00  0.00     0.060 A 
BRANCH   3   8
ATOM      8  O   UNL     1      25.832  68.111  26.261  1.00  0.00    -0.493 OA
ATOM      9  C   UNL     1      25.571  67.348  27.434  1.00  0.00     0.278 C 
ENDBRANCH   3   8
BRANCH   5  10
ATOM     10  O   UNL     1      24.135  70.451  26.087  1.00  0.00    -0.493 OA
ATOM     11  C   UNL     1      23.040  70.706  26.959  1.00  0.00     0.278 C 
ENDBRANCH   5  10
ENDBRANCH   1   2
BRANCH   1  12
ATOM     12  N   UNL     1      21.980  69.043  21.128  1.00  0.00    -0.328 N 
ATOM     13  C   UNL     1      21.929  70.565  21.023  1.00  0.00     0.284 C 
ATOM     14  C   UNL     1      21.216  68.418  19.960  1.00  0.00     0.284 C 
ATOM     15  C   UNL     1      20.478  71.082  20.983  1.00  0.00     0.178 C 
ATOM     16  C   UNL     1      19.771  68.948  19.862  1.00  0.00     0.178 C 
ATOM     17  N   UNL     1      19.695  70.419  19.924  1.00  0.00    -0.360 N 
ATOM     18  H   UNL     1      22.961  68.771  21.002  1.00  0.00     0.348 HD
BRANCH  17  19
ATOM     19  C   UNL     1      19.547  71.161  18.746  1.00  0.00     0.040 A 
ATOM     20  C   UNL     1      20.520  71.135  17.732  1.00  0.00     0.026 A 
ATOM     21  C   UNL     1      18.401  71.979  18.548  1.00  0.00    -0.025 A 
ATOM     22  C   UNL     1      20.405  71.923  16.588  1.00  0.00     0.002 A 
ATOM     23  C   UNL     1      18.306  72.811  17.402  1.00  0.00    -0.046 A 
ATOM     24  C   UNL     1      19.310  72.763  16.429  1.00  0.00     0.004 A 
ATOM     25  C   UNL     1      17.260  71.970  19.542  1.00  0.00     0.047 C 
ATOM     26  C   UNL     1      17.123  73.715  17.168  1.00  0.00     0.044 C 
ENDBRANCH  17  19
ENDBRANCH   1  12
TORSDOF 5
ENDMDL
MODEL 9
REMARK VINA RESULT:    -6.821      5.446      7.522
REMARK INTER + INTRA:          -9.378
REMARK INTER:                  -8.858
REMARK INTRA:                  -0.520
REMARK UNBOUND:                -0.564
REMARK SMILES COc1ccc(C[NH+]2CCN(c3cccc(C)c3C)CC2)cc1OC
REMARK SMILES IDX 7 1 6 2 3 3 4 4 23 5 5 6 22 7 2 8 1 9 24 10 25 11 8 12 9 13
REMARK SMILES IDX 21 14 10 15 20 16 11 17 12 19 13 20 18 21 14 22 16 23 15 24
REMARK SMILES IDX 19 25 17 26
REMARK H PARENT 8 18
ROOT
ATOM      1  C   UNL     1      20.062  69.236  19.755  1.00  0.00     0.299 C 
ENDROOT
BRANCH   1   2
ATOM      2  C   UNL     1      20.496  69.609  18.367  1.00  0.00     0.010 A 
ATOM      3  C   UNL     1      21.234  70.265  15.709  1.00  0.00     0.160 A 
ATOM      4  C   UNL     1      20.771  71.248  16.596  1.00  0.00     0.051 A 
ATOM      5  C   UNL     1      21.347  68.943  16.171  1.00  0.00     0.161 A 
ATOM      6  C   UNL     1      20.407  70.926  17.909  1.00  0.00     0.013 A 
ATOM      7  C   UNL     1      20.972  68.629  17.486  1.00  0.00     0.060 A 
BRANCH   3   8
ATOM      8  O   UNL     1      21.549  70.518  14.403  1.00  0.00    -0.493 OA
ATOM      9  C   UNL     1      20.533  70.369  13.418  1.00  0.00     0.278 C 
ENDBRANCH   3   8
BRANCH   5  10
ATOM     10  O   UNL     1      21.759  67.837  15.475  1.00  0.00    -0.493 OA
ATOM     11  C   UNL     1      20.780  66.858  15.146  1.00  0.00     0.278 C 
ENDBRANCH   5  10
ENDBRANCH   1   2
BRANCH   1  12
ATOM     12  N   UNL     1      20.471  70.255  20.793  1.00  0.00    -0.328 N 
ATOM     13  C   UNL     1      21.980  70.472  20.855  1.00  0.00     0.284 C 
ATOM     14  C   UNL     1      19.928  69.988  22.197  1.00  0.00     0.284 C 
ATOM     15  C   UNL     1      22.699  69.269  21.496  1.00  0.00     0.178 C 
ATOM     16  C   UNL     1      20.657  68.819  22.889  1.00  0.00     0.178 C 
ATOM     17  N   UNL     1      22.124  68.933  22.813  1.00  0.00    -0.360 N 
ATOM     18  H   UNL     1      20.056  71.145  20.494  1.00  0.00     0.348 HD
BRANCH  17  19
ATOM     19  C   UNL     1      22.845  69.414  23.913  1.00  0.00     0.040 A 
ATOM     20  C   UNL     1      22.661  70.720  24.400  1.00  0.00     0.026 A 
ATOM     21  C   UNL     1      23.802  68.590  24.564  1.00  0.00    -0.025 A 
ATOM     22  C   UNL     1      23.424  71.222  25.453  1.00  0.00     0.002 A 
ATOM     23  C   UNL     1      24.605  69.116  25.609  1.00  0.00    -0.046 A 
ATOM     24  C   UNL     1      24.396  70.428  26.047  1.00  0.00     0.004 A 
ATOM     25  C   UNL     1      23.973  67.139  24.170  1.00  0.00     0.047 C 
ATOM     26  C   UNL     1      25.650  68.285  26.308  1.00  0.00     0.044 C 
ENDBRANCH  17  19
ENDBRANCH   1  12
TORSDOF 5
ENDMDL
MODEL 10
REMARK VINA RESULT:    -6.710      5.417      6.962
REMARK INTER + INTRA:          -9.235
REMARK INTER:                  -8.737
REMARK INTRA:                  -0.499
REMARK UNBOUND:                -0.564
REMARK SMILES COc1ccc(C[NH+]2CCN(c3cccc(C)c3C)CC2)cc1OC
REMARK SMILES IDX 7 1 6 2 3 3 4 4 23 5 5 6 22 7 2 8 1 9 24 10 25 11 8 12 9 13
REMARK SMILES IDX 21 14 10 15 20 16 11 17 12 19 13 20 18 21 14 22 16 23 15 24
REMARK SMILES IDX 19 25 17 26
REMARK H PARENT 8 18
ROOT
ATOM      1  C   UNL     1      20.758  69.508  19.601  1.00  0.00     0.299 C 
ENDROOT
BRANCH   1   2
ATOM      2  C   UNL     1      19.491  69.819  18.856  1.00  0.00     0.010 A 
ATOM      3  C   UNL     1      17.063  70.315  17.479  1.00  0.00     0.160 A 
ATOM      4  C   UNL     1      17.382  71.007  18.656  1.00  0.00     0.051 A 
ATOM      5  C   UNL     1      17.984  69.381  16.978  1.00  0.00     0.161 A 
ATOM      6  C   UNL     1      18.580  70.764  19.338  1.00  0.00     0.013 A 
ATOM      7  C   UNL     1      19.179  69.138  17.673  1.00  0.00     0.060 A 
BRANCH   3   8
ATOM      8  O   UNL     1      15.882  70.476  16.809  1.00  0.00    -0.493 OA
ATOM      9  C   UNL     1      14.724  69.812  17.302  1.00  0.00     0.278 C 
ENDBRANCH   3   8
BRANCH   5  10
ATOM     10  O   UNL     1      17.867  68.592  15.863  1.00  0.00    -0.493 OA
ATOM     11  C   UNL     1      19.065  68.135  15.246  1.00  0.00     0.278 C 
ENDBRANCH   5  10
ENDBRANCH   1   2
BRANCH   1  12
ATOM     12  N   UNL     1      20.839  70.205  20.939  1.00  0.00    -0.328 N 
ATOM     13  C   UNL     1      22.229  70.758  21.241  1.00  0.00     0.284 C 
ATOM     14  C   UNL     1      20.345  69.373  22.122  1.00  0.00     0.284 C 
ATOM     15  C   UNL     1      23.228  69.632  21.567  1.00  0.00     0.178 C 
ATOM     16  C   UNL     1      21.343  68.262  22.508  1.00  0.00     0.178 C 
ATOM     17  N   UNL     1      22.725  68.756  22.644  1.00  0.00    -0.360 N 
ATOM     18  H   UNL     1      20.207  71.011  20.877  1.00  0.00     0.348 HD
BRANCH  17  19
ATOM     19  C   UNL     1      23.252  69.019  23.914  1.00  0.00     0.040 A 
ATOM     20  C   UNL     1      23.012  70.238  24.572  1.00  0.00     0.026 A 
ATOM     21  C   UNL     1      24.062  68.055  24.573  1.00  0.00    -0.025 A 
ATOM     22  C   UNL     1      23.589  70.527  25.808  1.00  0.00     0.002 A 
ATOM     23  C   UNL     1      24.680  68.367  25.811  1.00  0.00    -0.046 A 
ATOM     24  C   UNL     1      24.425  69.601  26.419  1.00  0.00     0.004 A 
ATOM     25  C   UNL     1      24.269  66.679  23.978  1.00  0.00     0.047 C 
ATOM     26  C   UNL     1      25.568  67.385  26.530  1.00  0.00     0.044 C 
ENDBRANCH  17  19
ENDBRANCH   1  12
TORSDOF 5
ENDMDL
