MODEL 1
REMARK VINA RESULT:    -7.083      0.000      0.000
REMARK INTER + INTRA:         -10.388
REMARK INTER:                 -10.396
REMARK INTRA:                   0.008
REMARK UNBOUND:                 0.008
REMARK SMILES CC[NH+](CC)CCSc1nc(O)c(-c2ccccc2)c(O)n1
REMARK SMILES IDX 7 1 6 2 3 3 2 5 1 6 4 7 5 8 8 9 9 10 10 11 22 12 11 13 20 14
REMARK SMILES IDX 13 15 12 16 21 18 14 20 15 21 19 22 16 23 18 24 17 25
REMARK H PARENT 3 4 12 17 21 19
ROOT
ATOM      1  C   UNL     1      22.711  73.638  23.813  1.00  0.00     0.139 C 
ENDROOT
BRANCH   1   2
ATOM      2  C   UNL     1      21.951  74.878  23.328  1.00  0.00     0.273 C 
BRANCH   2   3
ATOM      3  N   UNL     1      22.217  76.110  24.195  1.00  0.00    -0.335 N 
ATOM      4  H   UNL     1      22.582  75.717  25.079  1.00  0.00     0.348 HD
BRANCH   3   5
ATOM      5  C   UNL     1      20.922  76.803  24.574  1.00  0.00     0.258 C 
ATOM      6  C   UNL     1      19.785  76.403  23.651  1.00  0.00     0.071 C 
ENDBRANCH   3   5
BRANCH   3   7
ATOM      7  C   UNL     1      23.319  77.019  23.683  1.00  0.00     0.258 C 
ATOM      8  C   UNL     1      22.922  78.483  23.664  1.00  0.00     0.071 C 
ENDBRANCH   3   7
ENDBRANCH   2   3
ENDBRANCH   1   2
BRANCH   1   9
ATOM      9  S   UNL     1      21.627  72.594  24.845  1.00  0.00    -0.080 SA
BRANCH   9  10
ATOM     10  C   UNL     1      22.374  71.003  24.572  1.00  0.00     0.194 A 
ATOM     11  N   UNL     1      22.517  70.568  23.314  1.00  0.00    -0.187 NA
ATOM     12  N   UNL     1      22.763  70.345  25.667  1.00  0.00    -0.187 NA
ATOM     13  C   UNL     1      23.090  69.357  23.191  1.00  0.00     0.226 A 
ATOM     14  C   UNL     1      23.328  69.144  25.451  1.00  0.00     0.226 A 
ATOM     15  C   UNL     1      23.540  68.553  24.221  1.00  0.00     0.106 A 
BRANCH  13  16
ATOM     16  O   UNL     1      23.182  68.956  21.893  1.00  0.00    -0.493 OA
ATOM     17  H   UNL     1      23.135  69.795  21.406  1.00  0.00     0.295 HD
ENDBRANCH  13  16
BRANCH  14  18
ATOM     18  O   UNL     1      23.708  68.537  26.608  1.00  0.00    -0.493 OA
ATOM     19  H   UNL     1      24.672  68.474  26.499  1.00  0.00     0.295 HD
ENDBRANCH  14  18
BRANCH  15  20
ATOM     20  C   UNL     1      24.163  67.232  24.033  1.00  0.00    -0.007 A 
ATOM     21  C   UNL     1      23.550  66.244  23.243  1.00  0.00     0.009 A 
ATOM     22  C   UNL     1      25.392  66.913  24.636  1.00  0.00     0.009 A 
ATOM     23  C   UNL     1      24.140  64.989  23.062  1.00  0.00     0.001 A 
ATOM     24  C   UNL     1      25.984  65.659  24.457  1.00  0.00     0.001 A 
ATOM     25  C   UNL     1      25.357  64.698  23.670  1.00  0.00     0.000 A 
ENDBRANCH  15  20
ENDBRANCH   9  10
ENDBRANCH   1   9
TORSDOF 9
ENDMDL
MODEL 2
REMARK VINA RESULT:    -7.017      2.635      3.981
REMARK INTER + INTRA:         -10.290
REMARK INTER:                  -9.820
REMARK INTRA:                  -0.470
REMARK UNBOUND:                 0.008
REMARK SMILES CC[NH+](CC)CCSc1nc(O)c(-c2ccccc2)c(O)n1
REMARK SMILES IDX 7 1 6 2 3 3 2 5 1 6 4 7 5 8 8 9 9 10 10 11 22 12 11 13 20 14
REMARK SMILES IDX 13 15 12 16 21 18 14 20 15 21 19 22 16 23 18 24 17 25
REMARK H PARENT 3 4 12 17 21 19
ROOT
ATOM      1  C   UNL     1      19.858  76.251  23.696  1.00  0.00     0.139 C 
ENDROOT
BRANCH   1   2
ATOM      2  C   UNL     1      19.137  77.426  24.367  1.00  0.00     0.273 C 
BRANCH   2   3
ATOM      3  N   UNL     1      17.758  77.042  24.908  1.00  0.00    -0.335 N 
ATOM      4  H   UNL     1      17.879  76.064  25.219  1.00  0.00     0.348 HD
BRANCH   3   5
ATOM      5  C   UNL     1      16.731  76.980  23.792  1.00  0.00     0.258 C 
ATOM      6  C   UNL     1      15.560  77.906  24.061  1.00  0.00     0.071 C 
ENDBRANCH   3   5
BRANCH   3   7
ATOM      7  C   UNL     1      17.331  77.803  26.149  1.00  0.00     0.258 C 
ATOM      8  C   UNL     1      18.232  78.983  26.463  1.00  0.00     0.071 C 
ENDBRANCH   3   7
ENDBRANCH   2   3
ENDBRANCH   1   2
BRANCH   1   9
ATOM      9  S   UNL     1      21.514  76.023  24.428  1.00  0.00    -0.080 SA
BRANCH   9  10
ATOM     10  C   UNL     1      21.756  74.288  24.121  1.00  0.00     0.194 A 
ATOM     11  N   UNL     1      22.046  73.891  22.875  1.00  0.00    -0.187 NA
ATOM     12  N   UNL     1      21.643  73.486  25.183  1.00  0.00    -0.187 NA
ATOM     13  C   UNL     1      22.215  72.564  22.725  1.00  0.00     0.226 A 
ATOM     14  C   UNL     1      21.828  72.177  24.942  1.00  0.00     0.226 A 
ATOM     15  C   UNL     1      22.126  71.607  23.719  1.00  0.00     0.106 A 
BRANCH  13  16
ATOM     16  O   UNL     1      22.479  72.217  21.435  1.00  0.00    -0.493 OA
ATOM     17  H   UNL     1      23.133  71.506  21.535  1.00  0.00     0.295 HD
ENDBRANCH  13  16
BRANCH  14  18
ATOM     18  O   UNL     1      21.708  71.423  26.067  1.00  0.00    -0.493 OA
ATOM     19  H   UNL     1      22.617  71.426  26.414  1.00  0.00     0.295 HD
ENDBRANCH  14  18
BRANCH  15  20
ATOM     20  C   UNL     1      22.320  70.164  23.502  1.00  0.00    -0.007 A 
ATOM     21  C   UNL     1      21.318  69.376  22.910  1.00  0.00     0.009 A 
ATOM     22  C   UNL     1      23.513  69.524  23.879  1.00  0.00     0.009 A 
ATOM     23  C   UNL     1      21.500  68.005  22.702  1.00  0.00     0.001 A 
ATOM     24  C   UNL     1      23.698  68.153  23.672  1.00  0.00     0.001 A 
ATOM     25  C   UNL     1      22.691  67.395  23.084  1.00  0.00     0.000 A 
ENDBRANCH  15  20
ENDBRANCH   9  10
ENDBRANCH   1   9
TORSDOF 9
ENDMDL
MODEL 3
REMARK VINA RESULT:    -7.003      1.335      1.993
REMARK INTER + INTRA:         -10.270
REMARK INTER:                 -10.467
REMARK INTRA:                   0.197
REMARK UNBOUND:                 0.008
REMARK SMILES CC[NH+](CC)CCSc1nc(O)c(-c2ccccc2)c(O)n1
REMARK SMILES IDX 7 1 6 2 3 3 2 5 1 6 4 7 5 8 8 9 9 10 10 11 22 12 11 13 20 14
REMARK SMILES IDX 13 15 12 16 21 18 14 20 15 21 19 22 16 23 18 24 17 25
REMARK H PARENT 3 4 12 17 21 19
ROOT
ATOM      1  C   UNL     1      21.489  73.839  24.462  1.00  0.00     0.139 C 
ENDROOT
BRANCH   1   2
ATOM      2  C   UNL     1      22.477  74.681  23.647  1.00  0.00     0.273 C 
BRANCH   2   3
ATOM      3  N   UNL     1      22.150  76.176  23.685  1.00  0.00    -0.335 N 
ATOM      4  H   UNL     1      21.693  76.351  22.774  1.00  0.00     0.348 HD
BRANCH   3   5
ATOM      5  C   UNL     1      23.415  77.013  23.662  1.00  0.00     0.258 C 
ATOM      6  C   UNL     1      24.608  76.209  23.183  1.00  0.00     0.071 C 
ENDBRANCH   3   5
BRANCH   3   7
ATOM      7  C   UNL     1      21.120  76.572  24.726  1.00  0.00     0.258 C 
ATOM      8  C   UNL     1      21.670  77.520  25.775  1.00  0.00     0.071 C 
ENDBRANCH   3   7
ENDBRANCH   2   3
ENDBRANCH   1   2
BRANCH   1   9
ATOM      9  S   UNL     1      20.707  72.577  23.401  1.00  0.00    -0.080 SA
BRANCH   9  10
ATOM     10  C   UNL     1      21.703  71.162  23.812  1.00  0.00     0.194 A 
ATOM     11  N   UNL     1      21.393  69.979  23.267  1.00  0.00    -0.187 NA
ATOM     12  N   UNL     1      22.725  71.388  24.642  1.00  0.00    -0.187 NA
ATOM     13  C   UNL     1      22.194  68.959  23.626  1.00  0.00     0.226 A 
ATOM     14  C   UNL     1      23.473  70.314  24.946  1.00  0.00     0.226 A 
ATOM     15  C   UNL     1      23.282  69.029  24.476  1.00  0.00     0.106 A 
BRANCH  13  16
ATOM     16  O   UNL     1      21.813  67.778  23.065  1.00  0.00    -0.493 OA
ATOM     17  H   UNL     1      21.008  68.022  22.580  1.00  0.00     0.295 HD
ENDBRANCH  13  16
BRANCH  14  18
ATOM     18  O   UNL     1      24.498  70.619  25.786  1.00  0.00    -0.493 OA
ATOM     19  H   UNL     1      24.176  70.272  26.636  1.00  0.00     0.295 HD
ENDBRANCH  14  18
BRANCH  15  20
ATOM     20  C   UNL     1      24.129  67.880  24.838  1.00  0.00    -0.007 A 
ATOM     21  C   UNL     1      24.512  66.927  23.878  1.00  0.00     0.009 A 
ATOM     22  C   UNL     1      24.582  67.695  26.156  1.00  0.00     0.009 A 
ATOM     23  C   UNL     1      25.317  65.835  24.220  1.00  0.00     0.001 A 
ATOM     24  C   UNL     1      25.387  66.604  26.500  1.00  0.00     0.001 A 
ATOM     25  C   UNL     1      25.753  65.675  25.532  1.00  0.00     0.000 A 
ENDBRANCH  15  20
ENDBRANCH   9  10
ENDBRANCH   1   9
TORSDOF 9
ENDMDL
MODEL 4
REMARK VINA RESULT:    -6.962      0.376      2.058
REMARK INTER + INTRA:         -10.210
REMARK INTER:                 -10.171
REMARK INTRA:                  -0.039
REMARK UNBOUND:                 0.008
REMARK SMILES CC[NH+](CC)CCSc1nc(O)c(-c2ccccc2)c(O)n1
REMARK SMILES IDX 7 1 6 2 3 3 2 5 1 6 4 7 5 8 8 9 9 10 10 11 22 12 11 13 20 14
REMARK SMILES IDX 13 15 12 16 21 18 14 20 15 21 19 22 16 23 18 24 17 25
REMARK H PARENT 3 4 12 17 21 19
ROOT
ATOM      1  C   UNL     1      22.208  73.471  23.502  1.00  0.00     0.139 C 
ENDROOT
BRANCH   1   2
ATOM      2  C   UNL     1      21.288  74.682  23.309  1.00  0.00     0.273 C 
BRANCH   2   3
ATOM      3  N   UNL     1      21.702  75.881  24.164  1.00  0.00    -0.335 N 
ATOM      4  H   UNL     1      21.893  75.468  25.093  1.00  0.00     0.348 HD
BRANCH   3   5
ATOM      5  C   UNL     1      20.536  76.826  24.383  1.00  0.00     0.258 C 
ATOM      6  C   UNL     1      19.420  76.575  23.385  1.00  0.00     0.071 C 
ENDBRANCH   3   5
BRANCH   3   7
ATOM      7  C   UNL     1      23.006  76.535  23.748  1.00  0.00     0.258 C 
ATOM      8  C   UNL     1      22.944  78.051  23.772  1.00  0.00     0.071 C 
ENDBRANCH   3   7
ENDBRANCH   2   3
ENDBRANCH   1   2
BRANCH   1   9
ATOM      9  S   UNL     1      21.939  72.727  25.147  1.00  0.00    -0.080 SA
BRANCH   9  10
ATOM     10  C   UNL     1      22.613  71.105  24.869  1.00  0.00     0.194 A 
ATOM     11  N   UNL     1      22.971  70.368  25.929  1.00  0.00    -0.187 NA
ATOM     12  N   UNL     1      22.702  70.719  23.593  1.00  0.00    -0.187 NA
ATOM     13  C   UNL     1      23.470  69.153  25.637  1.00  0.00     0.226 A 
ATOM     14  C   UNL     1      23.210  69.491  23.394  1.00  0.00     0.226 A 
ATOM     15  C   UNL     1      23.631  68.614  24.374  1.00  0.00     0.106 A 
BRANCH  13  16
ATOM     16  O   UNL     1      23.843  68.464  26.750  1.00  0.00    -0.493 OA
ATOM     17  H   UNL     1      24.670  68.904  27.007  1.00  0.00     0.295 HD
ENDBRANCH  13  16
BRANCH  14  18
ATOM     18  O   UNL     1      23.262  69.162  22.075  1.00  0.00    -0.493 OA
ATOM     19  H   UNL     1      24.091  68.656  22.023  1.00  0.00     0.295 HD
ENDBRANCH  14  18
BRANCH  15  20
ATOM     20  C   UNL     1      24.184  67.276  24.108  1.00  0.00    -0.007 A 
ATOM     21  C   UNL     1      25.412  66.872  24.660  1.00  0.00     0.009 A 
ATOM     22  C   UNL     1      23.504  66.355  23.291  1.00  0.00     0.009 A 
ATOM     23  C   UNL     1      25.939  65.601  24.409  1.00  0.00     0.001 A 
ATOM     24  C   UNL     1      24.029  65.084  23.038  1.00  0.00     0.001 A 
ATOM     25  C   UNL     1      25.246  64.708  23.597  1.00  0.00     0.000 A 
ENDBRANCH  15  20
ENDBRANCH   9  10
ENDBRANCH   1   9
TORSDOF 9
ENDMDL
MODEL 5
REMARK VINA RESULT:    -6.916      3.940      7.220
REMARK INTER + INTRA:         -10.143
REMARK INTER:                  -9.486
REMARK INTRA:                  -0.657
REMARK UNBOUND:                 0.008
REMARK SMILES CC[NH+](CC)CCSc1nc(O)c(-c2ccccc2)c(O)n1
REMARK SMILES IDX 7 1 6 2 3 3 2 5 1 6 4 7 5 8 8 9 9 10 10 11 22 12 11 13 20 14
REMARK SMILES IDX 13 15 12 16 21 18 14 20 15 21 19 22 16 23 18 24 17 25
REMARK H PARENT 3 4 12 17 21 19
ROOT
ATOM      1  C   UNL     1      23.555  70.302  24.679  1.00  0.00     0.139 C 
ENDROOT
BRANCH   1   2
ATOM      2  C   UNL     1      23.274  69.199  25.706  1.00  0.00     0.273 C 
BRANCH   2   3
ATOM      3  N   UNL     1      24.175  67.976  25.520  1.00  0.00    -0.335 N 
ATOM      4  H   UNL     1      23.681  67.225  26.031  1.00  0.00     0.348 HD
BRANCH   3   5
ATOM      5  C   UNL     1      25.493  68.152  26.251  1.00  0.00     0.258 C 
ATOM      6  C   UNL     1      25.619  67.185  27.414  1.00  0.00     0.071 C 
ENDBRANCH   3   5
BRANCH   3   7
ATOM      7  C   UNL     1      24.281  67.479  24.091  1.00  0.00     0.258 C 
ATOM      8  C   UNL     1      24.625  66.004  23.999  1.00  0.00     0.071 C 
ENDBRANCH   3   7
ENDBRANCH   2   3
ENDBRANCH   1   2
BRANCH   1   9
ATOM      9  S   UNL     1      22.022  71.216  24.297  1.00  0.00    -0.080 SA
BRANCH   9  10
ATOM     10  C   UNL     1      21.519  70.375  22.812  1.00  0.00     0.194 A 
ATOM     11  N   UNL     1      21.115  69.102  22.901  1.00  0.00    -0.187 NA
ATOM     12  N   UNL     1      21.566  71.096  21.689  1.00  0.00    -0.187 NA
ATOM     13  C   UNL     1      20.751  68.537  21.735  1.00  0.00     0.226 A 
ATOM     14  C   UNL     1      21.183  70.454  20.572  1.00  0.00     0.226 A 
ATOM     15  C   UNL     1      20.748  69.145  20.493  1.00  0.00     0.106 A 
BRANCH  13  16
ATOM     16  O   UNL     1      20.378  67.236  21.883  1.00  0.00    -0.493 OA
ATOM     17  H   UNL     1      20.167  67.181  22.829  1.00  0.00     0.295 HD
ENDBRANCH  13  16
BRANCH  14  18
ATOM     18  O   UNL     1      21.246  71.250  19.471  1.00  0.00    -0.493 OA
ATOM     19  H   UNL     1      20.503  71.860  19.616  1.00  0.00     0.295 HD
ENDBRANCH  14  18
BRANCH  15  20
ATOM     20  C   UNL     1      20.339  68.481  19.245  1.00  0.00    -0.007 A 
ATOM     21  C   UNL     1      19.037  68.627  18.735  1.00  0.00     0.009 A 
ATOM     22  C   UNL     1      21.236  67.678  18.518  1.00  0.00     0.009 A 
ATOM     23  C   UNL     1      18.646  67.998  17.549  1.00  0.00     0.001 A 
ATOM     24  C   UNL     1      20.848  67.048  17.331  1.00  0.00     0.001 A 
ATOM     25  C   UNL     1      19.553  67.208  16.848  1.00  0.00     0.000 A 
ENDBRANCH  15  20
ENDBRANCH   9  10
ENDBRANCH   1   9
TORSDOF 9
ENDMDL
MODEL 6
REMARK VINA RESULT:    -6.886      4.078      7.299
REMARK INTER + INTRA:         -10.098
REMARK INTER:                  -9.424
REMARK INTRA:                  -0.674
REMARK UNBOUND:                 0.008
REMARK SMILES CC[NH+](CC)CCSc1nc(O)c(-c2ccccc2)c(O)n1
REMARK SMILES IDX 7 1 6 2 3 3 2 5 1 6 4 7 5 8 8 9 9 10 10 11 22 12 11 13 20 14
REMARK SMILES IDX 13 15 12 16 21 18 14 20 15 21 19 22 16 23 18 24 17 25
REMARK H PARENT 3 4 12 17 21 19
ROOT
ATOM      1  C   UNL     1      23.811  69.770  24.701  1.00  0.00     0.139 C 
ENDROOT
BRANCH   1   2
ATOM      2  C   UNL     1      23.519  68.599  25.646  1.00  0.00     0.273 C 
BRANCH   2   3
ATOM      3  N   UNL     1      24.244  67.315  25.236  1.00  0.00    -0.335 N 
ATOM      4  H   UNL     1      23.637  66.562  25.599  1.00  0.00     0.348 HD
BRANCH   3   5
ATOM      5  C   UNL     1      25.554  67.164  25.986  1.00  0.00     0.258 C 
ATOM      6  C   UNL     1      25.374  67.391  27.476  1.00  0.00     0.071 C 
ENDBRANCH   3   5
BRANCH   3   7
ATOM      7  C   UNL     1      24.316  67.079  23.739  1.00  0.00     0.258 C 
ATOM      8  C   UNL     1      24.336  65.607  23.370  1.00  0.00     0.071 C 
ENDBRANCH   3   7
ENDBRANCH   2   3
ENDBRANCH   1   2
BRANCH   1   9
ATOM      9  S   UNL     1      22.313  70.786  24.471  1.00  0.00    -0.080 SA
BRANCH   9  10
ATOM     10  C   UNL     1      21.722  70.128  22.928  1.00  0.00     0.194 A 
ATOM     11  N   UNL     1      21.758  70.909  21.841  1.00  0.00    -0.187 NA
ATOM     12  N   UNL     1      21.289  68.864  22.959  1.00  0.00    -0.187 NA
ATOM     13  C   UNL     1      21.296  70.338  20.713  1.00  0.00     0.226 A 
ATOM     14  C   UNL     1      20.847  68.375  21.789  1.00  0.00     0.226 A 
ATOM     15  C   UNL     1      20.811  69.050  20.584  1.00  0.00     0.106 A 
BRANCH  13  16
ATOM     16  O   UNL     1      21.329  71.188  19.650  1.00  0.00    -0.493 OA
ATOM     17  H   UNL     1      21.915  70.727  19.027  1.00  0.00     0.295 HD
ENDBRANCH  13  16
BRANCH  14  18
ATOM     18  O   UNL     1      20.432  67.084  21.893  1.00  0.00    -0.493 OA
ATOM     19  H   UNL     1      20.986  66.748  22.618  1.00  0.00     0.295 HD
ENDBRANCH  14  18
BRANCH  15  20
ATOM     20  C   UNL     1      20.315  68.472  19.324  1.00  0.00    -0.007 A 
ATOM     21  C   UNL     1      21.148  67.694  18.502  1.00  0.00     0.009 A 
ATOM     22  C   UNL     1      18.990  68.678  18.899  1.00  0.00     0.009 A 
ATOM     23  C   UNL     1      20.679  67.144  17.305  1.00  0.00     0.001 A 
ATOM     24  C   UNL     1      18.518  68.128  17.703  1.00  0.00     0.001 A 
ATOM     25  C   UNL     1      19.364  67.362  16.907  1.00  0.00     0.000 A 
ENDBRANCH  15  20
ENDBRANCH   9  10
ENDBRANCH   1   9
TORSDOF 9
ENDMDL
MODEL 7
REMARK VINA RESULT:    -6.818      3.094      4.341
REMARK INTER + INTRA:          -9.999
REMARK INTER:                  -9.571
REMARK INTRA:                  -0.428
REMARK UNBOUND:                 0.008
REMARK SMILES CC[NH+](CC)CCSc1nc(O)c(-c2ccccc2)c(O)n1
REMARK SMILES IDX 7 1 6 2 3 3 2 5 1 6 4 7 5 8 8 9 9 10 10 11 22 12 11 13 20 14
REMARK SMILES IDX 13 15 12 16 21 18 14 20 15 21 19 22 16 23 18 24 17 25
REMARK H PARENT 3 4 12 17 21 19
ROOT
ATOM      1  C   UNL     1      19.407  76.461  23.234  1.00  0.00     0.139 C 
ENDROOT
BRANCH   1   2
ATOM      2  C   UNL     1      18.285  77.145  24.024  1.00  0.00     0.273 C 
BRANCH   2   3
ATOM      3  N   UNL     1      18.659  77.396  25.486  1.00  0.00    -0.335 N 
ATOM      4  H   UNL     1      18.895  76.456  25.845  1.00  0.00     0.348 HD
BRANCH   3   5
ATOM      5  C   UNL     1      17.452  77.838  26.292  1.00  0.00     0.258 C 
ATOM      6  C   UNL     1      16.407  78.501  25.413  1.00  0.00     0.071 C 
ENDBRANCH   3   5
BRANCH   3   7
ATOM      7  C   UNL     1      19.917  78.222  25.684  1.00  0.00     0.258 C 
ATOM      8  C   UNL     1      20.999  77.483  26.448  1.00  0.00     0.071 C 
ENDBRANCH   3   7
ENDBRANCH   2   3
ENDBRANCH   1   2
BRANCH   1   9
ATOM      9  S   UNL     1      18.731  75.100  22.224  1.00  0.00    -0.080 SA
BRANCH   9  10
ATOM     10  C   UNL     1      19.759  73.759  22.779  1.00  0.00     0.194 A 
ATOM     11  N   UNL     1      19.252  72.519  22.781  1.00  0.00    -0.187 NA
ATOM     12  N   UNL     1      21.000  74.088  23.149  1.00  0.00    -0.187 NA
ATOM     13  C   UNL     1      20.092  71.561  23.214  1.00  0.00     0.226 A 
ATOM     14  C   UNL     1      21.770  73.069  23.565  1.00  0.00     0.226 A 
ATOM     15  C   UNL     1      21.397  71.740  23.633  1.00  0.00     0.106 A 
BRANCH  13  16
ATOM     16  O   UNL     1      19.513  70.329  23.221  1.00  0.00    -0.493 OA
ATOM     17  H   UNL     1      19.638  70.029  22.306  1.00  0.00     0.295 HD
ENDBRANCH  13  16
BRANCH  14  18
ATOM     18  O   UNL     1      23.020  73.475  23.915  1.00  0.00    -0.493 OA
ATOM     19  H   UNL     1      22.858  73.935  24.757  1.00  0.00     0.295 HD
ENDBRANCH  14  18
BRANCH  15  20
ATOM     20  C   UNL     1      22.276  70.655  24.099  1.00  0.00    -0.007 A 
ATOM     21  C   UNL     1      22.644  70.545  25.451  1.00  0.00     0.009 A 
ATOM     22  C   UNL     1      22.779  69.691  23.207  1.00  0.00     0.009 A 
ATOM     23  C   UNL     1      23.479  69.514  25.895  1.00  0.00     0.001 A 
ATOM     24  C   UNL     1      23.613  68.659  23.649  1.00  0.00     0.001 A 
ATOM     25  C   UNL     1      23.963  68.572  24.992  1.00  0.00     0.000 A 
ENDBRANCH  15  20
ENDBRANCH   9  10
ENDBRANCH   1   9
TORSDOF 9
ENDMDL
MODEL 8
REMARK VINA RESULT:    -6.791      3.987      5.076
REMARK INTER + INTRA:          -9.959
REMARK INTER:                  -9.412
REMARK INTRA:                  -0.546
REMARK UNBOUND:                 0.008
REMARK SMILES CC[NH+](CC)CCSc1nc(O)c(-c2ccccc2)c(O)n1
REMARK SMILES IDX 7 1 6 2 3 3 2 5 1 6 4 7 5 8 8 9 9 10 10 11 22 12 11 13 20 14
REMARK SMILES IDX 13 15 12 16 21 18 14 20 15 21 19 22 16 23 18 24 17 25
REMARK H PARENT 3 4 12 17 21 19
ROOT
ATOM      1  C   UNL     1      21.282  73.344  23.302  1.00  0.00     0.139 C 
ENDROOT
BRANCH   1   2
ATOM      2  C   UNL     1      22.381  74.176  23.974  1.00  0.00     0.273 C 
BRANCH   2   3
ATOM      3  N   UNL     1      22.204  75.679  23.749  1.00  0.00    -0.335 N 
ATOM      4  H   UNL     1      21.676  75.736  22.863  1.00  0.00     0.348 HD
BRANCH   3   5
ATOM      5  C   UNL     1      23.535  76.349  23.462  1.00  0.00     0.258 C 
ATOM      6  C   UNL     1      24.483  75.417  22.733  1.00  0.00     0.071 C 
ENDBRANCH   3   5
BRANCH   3   7
ATOM      7  C   UNL     1      21.329  76.374  24.776  1.00  0.00     0.258 C 
ATOM      8  C   UNL     1      21.977  77.610  25.370  1.00  0.00     0.071 C 
ENDBRANCH   3   7
ENDBRANCH   2   3
ENDBRANCH   1   2
BRANCH   1   9
ATOM      9  S   UNL     1      21.254  71.656  23.994  1.00  0.00    -0.080 SA
BRANCH   9  10
ATOM     10  C   UNL     1      20.964  70.716  22.512  1.00  0.00     0.194 A 
ATOM     11  N   UNL     1      21.092  71.328  21.328  1.00  0.00    -0.187 NA
ATOM     12  N   UNL     1      20.647  69.430  22.689  1.00  0.00    -0.187 NA
ATOM     13  C   UNL     1      20.857  70.549  20.256  1.00  0.00     0.226 A 
ATOM     14  C   UNL     1      20.431  68.727  21.564  1.00  0.00     0.226 A 
ATOM     15  C   UNL     1      20.515  69.210  20.272  1.00  0.00     0.106 A 
BRANCH  13  16
ATOM     16  O   UNL     1      20.974  71.232  19.084  1.00  0.00    -0.493 OA
ATOM     17  H   UNL     1      20.885  72.157  19.366  1.00  0.00     0.295 HD
ENDBRANCH  13  16
BRANCH  14  18
ATOM     18  O   UNL     1      20.123  67.427  21.818  1.00  0.00    -0.493 OA
ATOM     19  H   UNL     1      19.279  67.506  22.295  1.00  0.00     0.295 HD
ENDBRANCH  14  18
BRANCH  15  20
ATOM     20  C   UNL     1      20.268  68.401  19.067  1.00  0.00    -0.007 A 
ATOM     21  C   UNL     1      19.013  68.401  18.435  1.00  0.00     0.009 A 
ATOM     22  C   UNL     1      21.279  67.600  18.506  1.00  0.00     0.009 A 
ATOM     23  C   UNL     1      18.777  67.634  17.289  1.00  0.00     0.001 A 
ATOM     24  C   UNL     1      21.045  66.833  17.361  1.00  0.00     0.001 A 
ATOM     25  C   UNL     1      19.794  66.850  16.754  1.00  0.00     0.000 A 
ENDBRANCH  15  20
ENDBRANCH   9  10
ENDBRANCH   1   9
TORSDOF 9
ENDMDL
MODEL 9
REMARK VINA RESULT:    -6.783      1.636      3.029
REMARK INTER + INTRA:          -9.948
REMARK INTER:                  -9.956
REMARK INTRA:                   0.009
REMARK UNBOUND:                 0.008
REMARK SMILES CC[NH+](CC)CCSc1nc(O)c(-c2ccccc2)c(O)n1
REMARK SMILES IDX 7 1 6 2 3 3 2 5 1 6 4 7 5 8 8 9 9 10 10 11 22 12 11 13 20 14
REMARK SMILES IDX 13 15 12 16 21 18 14 20 15 21 19 22 16 23 18 24 17 25
REMARK H PARENT 3 4 12 17 21 19
ROOT
ATOM      1  C   UNL     1      20.948  75.100  23.797  1.00  0.00     0.139 C 
ENDROOT
BRANCH   1   2
ATOM      2  C   UNL     1      20.095  76.370  23.696  1.00  0.00     0.273 C 
BRANCH   2   3
ATOM      3  N   UNL     1      20.768  77.586  24.336  1.00  0.00    -0.335 N 
ATOM      4  H   UNL     1      20.647  78.334  23.633  1.00  0.00     0.348 HD
BRANCH   3   5
ATOM      5  C   UNL     1      22.268  77.386  24.447  1.00  0.00     0.258 C 
ATOM      6  C   UNL     1      23.032  78.488  23.737  1.00  0.00     0.071 C 
ENDBRANCH   3   5
BRANCH   3   7
ATOM      7  C   UNL     1      20.082  78.104  25.586  1.00  0.00     0.258 C 
ATOM      8  C   UNL     1      20.766  77.660  26.866  1.00  0.00     0.071 C 
ENDBRANCH   3   7
ENDBRANCH   2   3
ENDBRANCH   1   2
BRANCH   1   9
ATOM      9  S   UNL     1      20.132  73.718  22.927  1.00  0.00    -0.080 SA
BRANCH   9  10
ATOM     10  C   UNL     1      21.164  72.367  23.451  1.00  0.00     0.194 A 
ATOM     11  N   UNL     1      21.318  72.149  24.763  1.00  0.00    -0.187 NA
ATOM     12  N   UNL     1      21.712  71.638  22.475  1.00  0.00    -0.187 NA
ATOM     13  C   UNL     1      22.112  71.108  25.078  1.00  0.00     0.226 A 
ATOM     14  C   UNL     1      22.488  70.619  22.880  1.00  0.00     0.226 A 
ATOM     15  C   UNL     1      22.753  70.266  24.189  1.00  0.00     0.106 A 
BRANCH  13  16
ATOM     16  O   UNL     1      22.255  70.954  26.423  1.00  0.00    -0.493 OA
ATOM     17  H   UNL     1      22.333  69.990  26.520  1.00  0.00     0.295 HD
ENDBRANCH  13  16
BRANCH  14  18
ATOM     18  O   UNL     1      23.004  69.916  21.836  1.00  0.00    -0.493 OA
ATOM     19  H   UNL     1      23.350  69.121  22.275  1.00  0.00     0.295 HD
ENDBRANCH  14  18
BRANCH  15  20
ATOM     20  C   UNL     1      23.613  69.139  24.586  1.00  0.00    -0.007 A 
ATOM     21  C   UNL     1      23.441  67.860  24.029  1.00  0.00     0.009 A 
ATOM     22  C   UNL     1      24.636  69.303  25.537  1.00  0.00     0.009 A 
ATOM     23  C   UNL     1      24.258  66.789  24.405  1.00  0.00     0.001 A 
ATOM     24  C   UNL     1      25.454  68.233  25.914  1.00  0.00     0.001 A 
ATOM     25  C   UNL     1      25.264  66.976  25.348  1.00  0.00     0.000 A 
ENDBRANCH  15  20
ENDBRANCH   9  10
ENDBRANCH   1   9
TORSDOF 9
ENDMDL
MODEL 10
REMARK VINA RESULT:    -6.749      1.787      2.887
REMARK INTER + INTRA:          -9.898
REMARK INTER:                  -9.800
REMARK INTRA:                  -0.098
REMARK UNBOUND:                 0.008
REMARK SMILES CC[NH+](CC)CCSc1nc(O)c(-c2ccccc2)c(O)n1
REMARK SMILES IDX 7 1 6 2 3 3 2 5 1 6 4 7 5 8 8 9 9 10 10 11 22 12 11 13 20 14
REMARK SMILES IDX 13 15 12 16 21 18 14 20 15 21 19 22 16 23 18 24 17 25
REMARK H PARENT 3 4 12 17 21 19
ROOT
ATOM      1  C   UNL     1      20.861  75.150  23.647  1.00  0.00     0.139 C 
ENDROOT
BRANCH   1   2
ATOM      2  C   UNL     1      19.869  76.312  23.781  1.00  0.00     0.273 C 
BRANCH   2   3
ATOM      3  N   UNL     1      20.555  77.638  24.118  1.00  0.00    -0.335 N 
ATOM      4  H   UNL     1      20.580  78.139  23.214  1.00  0.00     0.348 HD
BRANCH   3   5
ATOM      5  C   UNL     1      22.010  77.421  24.492  1.00  0.00     0.258 C 
ATOM      6  C   UNL     1      22.930  78.339  23.708  1.00  0.00     0.071 C 
ENDBRANCH   3   5
BRANCH   3   7
ATOM      7  C   UNL     1      19.767  78.540  25.048  1.00  0.00     0.258 C 
ATOM      8  C   UNL     1      18.465  79.028  24.441  1.00  0.00     0.071 C 
ENDBRANCH   3   7
ENDBRANCH   2   3
ENDBRANCH   1   2
BRANCH   1   9
ATOM      9  S   UNL     1      20.071  73.738  22.803  1.00  0.00    -0.080 SA
BRANCH   9  10
ATOM     10  C   UNL     1      21.129  72.417  23.349  1.00  0.00     0.194 A 
ATOM     11  N   UNL     1      21.749  71.669  22.427  1.00  0.00    -0.187 NA
ATOM     12  N   UNL     1      21.245  72.269  24.671  1.00  0.00    -0.187 NA
ATOM     13  C   UNL     1      22.532  70.691  22.920  1.00  0.00     0.226 A 
ATOM     14  C   UNL     1      22.048  71.270  25.074  1.00  0.00     0.226 A 
ATOM     15  C   UNL     1      22.751  70.408  24.255  1.00  0.00     0.106 A 
BRANCH  13  16
ATOM     16  O   UNL     1      23.112  69.947  21.938  1.00  0.00    -0.493 OA
ATOM     17  H   UNL     1      22.533  69.169  21.889  1.00  0.00     0.295 HD
ENDBRANCH  13  16
BRANCH  14  18
ATOM     18  O   UNL     1      22.126  71.185  26.430  1.00  0.00    -0.493 OA
ATOM     19  H   UNL     1      21.191  71.226  26.692  1.00  0.00     0.295 HD
ENDBRANCH  14  18
BRANCH  15  20
ATOM     20  C   UNL     1      23.619  69.324  24.743  1.00  0.00    -0.007 A 
ATOM     21  C   UNL     1      24.685  69.583  25.621  1.00  0.00     0.009 A 
ATOM     22  C   UNL     1      23.412  67.990  24.347  1.00  0.00     0.009 A 
ATOM     23  C   UNL     1      25.510  68.554  26.086  1.00  0.00     0.001 A 
ATOM     24  C   UNL     1      24.236  66.960  24.810  1.00  0.00     0.001 A 
ATOM     25  C   UNL     1      25.285  67.243  25.679  1.00  0.00     0.000 A 
ENDBRANCH  15  20
ENDBRANCH   9  10
ENDBRANCH   1   9
TORSDOF 9
ENDMDL
