MODEL 1
REMARK VINA RESULT:    -7.826      0.000      0.000
REMARK INTER + INTRA:         -11.018
REMARK INTER:                 -10.571
REMARK INTRA:                  -0.447
REMARK UNBOUND:                -0.447
REMARK SMILES COCCNc1ncnc2ccc(-c3ccccc3OC)cc12
REMARK SMILES IDX 5 1 4 3 3 4 2 5 1 6 6 7 7 8 23 9 8 10 22 11 10 12 9 13 13 14
REMARK SMILES IDX 11 15 12 16 14 17 15 18 19 19 16 20 18 21 17 22 20 23 21 24
REMARK H PARENT 5 2
ROOT
ATOM      1  N   UNL     1      22.470  71.989  21.728  1.00  0.00    -0.367 N 
ATOM      2  H   UNL     1      22.735  72.673  21.017  1.00  0.00     0.162 HD
ENDROOT
BRANCH   1   3
ATOM      3  C   UNL     1      21.561  72.636  22.683  1.00  0.00     0.143 C 
BRANCH   3   4
ATOM      4  C   UNL     1      22.310  73.606  23.606  1.00  0.00     0.181 C 
BRANCH   4   5
ATOM      5  O   UNL     1      22.669  72.916  24.814  1.00  0.00    -0.383 OA
ATOM      6  C   UNL     1      21.657  72.000  25.208  1.00  0.00     0.194 C 
ENDBRANCH   4   5
ENDBRANCH   3   4
ENDBRANCH   1   3
BRANCH   1   7
ATOM      7  C   UNL     1      21.980  70.834  21.082  1.00  0.00     0.137 A 
ATOM      8  N   UNL     1      21.268  70.977  19.950  1.00  0.00    -0.219 NA
ATOM      9  C   UNL     1      22.214  69.570  21.660  1.00  0.00     0.043 A 
ATOM     10  C   UNL     1      20.817  69.855  19.379  1.00  0.00     0.224 A 
ATOM     11  C   UNL     1      22.917  69.347  22.875  1.00  0.00     0.023 A 
ATOM     12  C   UNL     1      21.696  68.476  20.956  1.00  0.00     0.076 A 
ATOM     13  N   UNL     1      21.005  68.608  19.819  1.00  0.00    -0.236 NA
ATOM     14  C   UNL     1      23.123  68.056  23.383  1.00  0.00    -0.014 A 
ATOM     15  C   UNL     1      21.903  67.201  21.462  1.00  0.00     0.030 A 
ATOM     16  C   UNL     1      22.605  66.984  22.653  1.00  0.00     0.011 A 
BRANCH  14  17
ATOM     17  C   UNL     1      23.842  67.844  24.654  1.00  0.00     0.024 A 
ATOM     18  C   UNL     1      23.503  68.634  25.770  1.00  0.00     0.012 A 
ATOM     19  C   UNL     1      24.863  66.876  24.795  1.00  0.00     0.126 A 
ATOM     20  C   UNL     1      24.151  68.470  26.994  1.00  0.00     0.001 A 
ATOM     21  C   UNL     1      25.506  66.719  26.031  1.00  0.00     0.047 A 
ATOM     22  C   UNL     1      25.149  67.512  27.124  1.00  0.00     0.004 A 
BRANCH  19  23
ATOM     23  O   UNL     1      25.166  66.145  23.673  1.00  0.00    -0.496 OA
ATOM     24  C   UNL     1      25.436  64.760  23.840  1.00  0.00     0.278 C 
ENDBRANCH  19  23
ENDBRANCH  14  17
ENDBRANCH   1   7
TORSDOF 6
ENDMDL
MODEL 2
REMARK VINA RESULT:    -7.812      2.455      4.170
REMARK INTER + INTRA:         -10.999
REMARK INTER:                 -10.925
REMARK INTRA:                  -0.074
REMARK UNBOUND:                -0.447
REMARK SMILES COCCNc1ncnc2ccc(-c3ccccc3OC)cc12
REMARK SMILES IDX 5 1 4 3 3 4 2 5 1 6 6 7 7 8 23 9 8 10 22 11 10 12 9 13 13 14
REMARK SMILES IDX 11 15 12 16 14 17 15 18 19 19 16 20 18 21 17 22 20 23 21 24
REMARK H PARENT 5 2
ROOT
ATOM      1  N   UNL     1      19.935  70.001  23.065  1.00  0.00    -0.367 N 
ATOM      2  H   UNL     1      18.963  70.253  23.252  1.00  0.00     0.162 HD
ENDROOT
BRANCH   1   3
ATOM      3  C   UNL     1      20.144  69.987  21.611  1.00  0.00     0.143 C 
BRANCH   3   4
ATOM      4  C   UNL     1      19.129  70.881  20.887  1.00  0.00     0.181 C 
BRANCH   4   5
ATOM      5  O   UNL     1      17.886  70.853  21.607  1.00  0.00    -0.383 OA
ATOM      6  C   UNL     1      17.228  72.111  21.553  1.00  0.00     0.194 C 
ENDBRANCH   4   5
ENDBRANCH   3   4
ENDBRANCH   1   3
BRANCH   1   7
ATOM      7  C   UNL     1      20.774  70.857  23.809  1.00  0.00     0.137 A 
ATOM      8  N   UNL     1      20.397  72.134  23.996  1.00  0.00    -0.219 NA
ATOM      9  C   UNL     1      22.001  70.363  24.299  1.00  0.00     0.043 A 
ATOM     10  C   UNL     1      21.228  72.909  24.700  1.00  0.00     0.224 A 
ATOM     11  C   UNL     1      22.485  69.042  24.102  1.00  0.00     0.023 A 
ATOM     12  C   UNL     1      22.773  71.276  25.028  1.00  0.00     0.076 A 
ATOM     13  N   UNL     1      22.395  72.541  25.237  1.00  0.00    -0.236 NA
ATOM     14  C   UNL     1      23.713  68.618  24.632  1.00  0.00    -0.014 A 
ATOM     15  C   UNL     1      23.986  70.851  25.552  1.00  0.00     0.030 A 
ATOM     16  C   UNL     1      24.456  69.546  25.365  1.00  0.00     0.011 A 
BRANCH  14  17
ATOM     17  C   UNL     1      24.207  67.247  24.404  1.00  0.00     0.024 A 
ATOM     18  C   UNL     1      25.147  66.702  25.301  1.00  0.00     0.012 A 
ATOM     19  C   UNL     1      23.771  66.454  23.317  1.00  0.00     0.126 A 
ATOM     20  C   UNL     1      25.642  65.409  25.131  1.00  0.00     0.001 A 
ATOM     21  C   UNL     1      24.274  65.156  23.157  1.00  0.00     0.047 A 
ATOM     22  C   UNL     1      25.204  64.637  24.062  1.00  0.00     0.004 A 
BRANCH  19  23
ATOM     23  O   UNL     1      22.866  67.038  22.464  1.00  0.00    -0.496 OA
ATOM     24  C   UNL     1      22.072  66.181  21.657  1.00  0.00     0.278 C 
ENDBRANCH  19  23
ENDBRANCH  14  17
ENDBRANCH   1   7
TORSDOF 6
ENDMDL
MODEL 3
REMARK VINA RESULT:    -7.698      1.893      4.119
REMARK INTER + INTRA:         -10.844
REMARK INTER:                 -10.631
REMARK INTRA:                  -0.214
REMARK UNBOUND:                -0.447
REMARK SMILES COCCNc1ncnc2ccc(-c3ccccc3OC)cc12
REMARK SMILES IDX 5 1 4 3 3 4 2 5 1 6 6 7 7 8 23 9 8 10 22 11 10 12 9 13 13 14
REMARK SMILES IDX 11 15 12 16 14 17 15 18 19 19 16 20 18 21 17 22 20 23 21 24
REMARK H PARENT 5 2
ROOT
ATOM      1  N   UNL     1      21.993  71.381  21.443  1.00  0.00    -0.367 N 
ATOM      2  H   UNL     1      22.632  70.587  21.363  1.00  0.00     0.162 HD
ENDROOT
BRANCH   1   3
ATOM      3  C   UNL     1      20.697  70.998  20.867  1.00  0.00     0.143 C 
BRANCH   3   4
ATOM      4  C   UNL     1      20.858  69.932  19.775  1.00  0.00     0.181 C 
BRANCH   4   5
ATOM      5  O   UNL     1      21.998  69.115  20.086  1.00  0.00    -0.383 OA
ATOM      6  C   UNL     1      21.608  67.796  20.444  1.00  0.00     0.194 C 
ENDBRANCH   4   5
ENDBRANCH   3   4
ENDBRANCH   1   3
BRANCH   1   7
ATOM      7  C   UNL     1      21.978  71.814  22.786  1.00  0.00     0.137 A 
ATOM      8  N   UNL     1      21.520  73.047  23.064  1.00  0.00    -0.219 NA
ATOM      9  C   UNL     1      22.478  70.960  23.790  1.00  0.00     0.043 A 
ATOM     10  C   UNL     1      21.533  73.416  24.349  1.00  0.00     0.224 A 
ATOM     11  C   UNL     1      23.018  69.666  23.566  1.00  0.00     0.023 A 
ATOM     12  C   UNL     1      22.426  71.465  25.096  1.00  0.00     0.076 A 
ATOM     13  N   UNL     1      21.953  72.682  25.383  1.00  0.00    -0.236 NA
ATOM     14  C   UNL     1      23.486  68.866  24.619  1.00  0.00    -0.014 A 
ATOM     15  C   UNL     1      22.889  70.671  26.135  1.00  0.00     0.030 A 
ATOM     16  C   UNL     1      23.410  69.392  25.911  1.00  0.00     0.011 A 
BRANCH  14  17
ATOM     17  C   UNL     1      24.057  67.530  24.365  1.00  0.00     0.024 A 
ATOM     18  C   UNL     1      23.520  66.744  23.327  1.00  0.00     0.012 A 
ATOM     19  C   UNL     1      25.128  67.005  25.126  1.00  0.00     0.126 A 
ATOM     20  C   UNL     1      24.026  65.476  23.045  1.00  0.00     0.001 A 
ATOM     21  C   UNL     1      25.630  65.731  24.832  1.00  0.00     0.047 A 
ATOM     22  C   UNL     1      25.081  64.972  23.796  1.00  0.00     0.004 A 
BRANCH  19  23
ATOM     23  O   UNL     1      25.605  67.805  26.135  1.00  0.00    -0.496 OA
ATOM     24  C   UNL     1      25.673  67.251  27.441  1.00  0.00     0.278 C 
ENDBRANCH  19  23
ENDBRANCH  14  17
ENDBRANCH   1   7
TORSDOF 6
ENDMDL
MODEL 4
REMARK VINA RESULT:    -7.524      4.864      9.744
REMARK INTER + INTRA:         -10.610
REMARK INTER:                  -9.860
REMARK INTRA:                  -0.750
REMARK UNBOUND:                -0.447
REMARK SMILES COCCNc1ncnc2ccc(-c3ccccc3OC)cc12
REMARK SMILES IDX 5 1 4 3 3 4 2 5 1 6 6 7 7 8 23 9 8 10 22 11 10 12 9 13 13 14
REMARK SMILES IDX 11 15 12 16 14 17 15 18 19 19 16 20 18 21 17 22 20 23 21 24
REMARK H PARENT 5 2
ROOT
ATOM      1  N   UNL     1      21.467  73.545  23.534  1.00  0.00    -0.367 N 
ATOM      2  H   UNL     1      20.969  73.449  22.647  1.00  0.00     0.162 HD
ENDROOT
BRANCH   1   3
ATOM      3  C   UNL     1      21.976  72.225  23.930  1.00  0.00     0.143 C 
BRANCH   3   4
ATOM      4  C   UNL     1      21.746  71.958  25.423  1.00  0.00     0.181 C 
BRANCH   4   5
ATOM      5  O   UNL     1      23.019  71.792  26.068  1.00  0.00    -0.383 OA
ATOM      6  C   UNL     1      22.868  71.289  27.390  1.00  0.00     0.194 C 
ENDBRANCH   4   5
ENDBRANCH   3   4
ENDBRANCH   1   3
BRANCH   1   7
ATOM      7  C   UNL     1      22.426  74.572  23.404  1.00  0.00     0.137 A 
ATOM      8  N   UNL     1      23.689  74.243  23.080  1.00  0.00    -0.219 NA
ATOM      9  C   UNL     1      22.045  75.906  23.657  1.00  0.00     0.043 A 
ATOM     10  C   UNL     1      24.563  75.249  22.977  1.00  0.00     0.224 A 
ATOM     11  C   UNL     1      20.744  76.322  24.047  1.00  0.00     0.023 A 
ATOM     12  C   UNL     1      23.055  76.863  23.505  1.00  0.00     0.076 A 
ATOM     13  N   UNL     1      24.308  76.547  23.162  1.00  0.00    -0.236 NA
ATOM     14  C   UNL     1      20.434  77.672  24.269  1.00  0.00    -0.014 A 
ATOM     15  C   UNL     1      22.744  78.198  23.724  1.00  0.00     0.030 A 
ATOM     16  C   UNL     1      21.459  78.606  24.098  1.00  0.00     0.011 A 
BRANCH  14  17
ATOM     17  C   UNL     1      19.081  78.084  24.688  1.00  0.00     0.024 A 
ATOM     18  C   UNL     1      18.833  78.324  26.054  1.00  0.00     0.012 A 
ATOM     19  C   UNL     1      18.020  78.249  23.769  1.00  0.00     0.126 A 
ATOM     20  C   UNL     1      17.572  78.718  26.500  1.00  0.00     0.001 A 
ATOM     21  C   UNL     1      16.757  78.648  24.228  1.00  0.00     0.047 A 
ATOM     22  C   UNL     1      16.537  78.882  25.588  1.00  0.00     0.004 A 
BRANCH  19  23
ATOM     23  O   UNL     1      18.311  77.988  22.452  1.00  0.00    -0.496 OA
ATOM     24  C   UNL     1      17.222  77.817  21.556  1.00  0.00     0.278 C 
ENDBRANCH  19  23
ENDBRANCH  14  17
ENDBRANCH   1   7
TORSDOF 6
ENDMDL
MODEL 5
REMARK VINA RESULT:    -7.459      2.469      3.944
REMARK INTER + INTRA:         -10.522
REMARK INTER:                 -10.410
REMARK INTRA:                  -0.112
REMARK UNBOUND:                -0.447
REMARK SMILES COCCNc1ncnc2ccc(-c3ccccc3OC)cc12
REMARK SMILES IDX 5 1 4 3 3 4 2 5 1 6 6 7 7 8 23 9 8 10 22 11 10 12 9 13 13 14
REMARK SMILES IDX 11 15 12 16 14 17 15 18 19 19 16 20 18 21 17 22 20 23 21 24
REMARK H PARENT 5 2
ROOT
ATOM      1  N   UNL     1      22.181  74.326  24.023  1.00  0.00    -0.367 N 
ATOM      2  H   UNL     1      23.057  73.845  23.812  1.00  0.00     0.162 HD
ENDROOT
BRANCH   1   3
ATOM      3  C   UNL     1      22.343  75.753  23.714  1.00  0.00     0.143 C 
BRANCH   3   4
ATOM      4  C   UNL     1      23.779  76.076  23.283  1.00  0.00     0.181 C 
BRANCH   4   5
ATOM      5  O   UNL     1      23.861  77.470  22.945  1.00  0.00    -0.383 OA
ATOM      6  C   UNL     1      22.968  78.247  23.732  1.00  0.00     0.194 C 
ENDBRANCH   4   5
ENDBRANCH   3   4
ENDBRANCH   1   3
BRANCH   1   7
ATOM      7  C   UNL     1      21.129  73.658  23.359  1.00  0.00     0.137 A 
ATOM      8  N   UNL     1      20.099  74.380  22.884  1.00  0.00    -0.219 NA
ATOM      9  C   UNL     1      21.168  72.253  23.249  1.00  0.00     0.043 A 
ATOM     10  C   UNL     1      19.124  73.703  22.271  1.00  0.00     0.224 A 
ATOM     11  C   UNL     1      22.198  71.422  23.766  1.00  0.00     0.023 A 
ATOM     12  C   UNL     1      20.087  71.668  22.576  1.00  0.00     0.076 A 
ATOM     13  N   UNL     1      19.070  72.381  22.082  1.00  0.00    -0.236 NA
ATOM     14  C   UNL     1      22.175  70.028  23.606  1.00  0.00    -0.014 A 
ATOM     15  C   UNL     1      20.069  70.289  22.419  1.00  0.00     0.030 A 
ATOM     16  C   UNL     1      21.091  69.475  22.920  1.00  0.00     0.011 A 
BRANCH  14  17
ATOM     17  C   UNL     1      23.246  69.181  24.162  1.00  0.00     0.024 A 
ATOM     18  C   UNL     1      23.612  68.005  23.477  1.00  0.00     0.012 A 
ATOM     19  C   UNL     1      23.924  69.503  25.361  1.00  0.00     0.126 A 
ATOM     20  C   UNL     1      24.621  67.172  23.959  1.00  0.00     0.001 A 
ATOM     21  C   UNL     1      24.937  68.659  25.835  1.00  0.00     0.047 A 
ATOM     22  C   UNL     1      25.283  67.501  25.136  1.00  0.00     0.004 A 
BRANCH  19  23
ATOM     23  O   UNL     1      23.518  70.650  25.998  1.00  0.00    -0.496 OA
ATOM     24  C   UNL     1      23.059  70.536  27.336  1.00  0.00     0.278 C 
ENDBRANCH  19  23
ENDBRANCH  14  17
ENDBRANCH   1   7
TORSDOF 6
ENDMDL
MODEL 6
REMARK VINA RESULT:    -7.419      1.234      2.143
REMARK INTER + INTRA:         -10.468
REMARK INTER:                 -10.273
REMARK INTRA:                  -0.194
REMARK UNBOUND:                -0.447
REMARK SMILES COCCNc1ncnc2ccc(-c3ccccc3OC)cc12
REMARK SMILES IDX 5 1 4 3 3 4 2 5 1 6 6 7 7 8 23 9 8 10 22 11 10 12 9 13 13 14
REMARK SMILES IDX 11 15 12 16 14 17 15 18 19 19 16 20 18 21 17 22 20 23 21 24
REMARK H PARENT 5 2
ROOT
ATOM      1  N   UNL     1      22.624  71.949  21.959  1.00  0.00    -0.367 N 
ATOM      2  H   UNL     1      23.117  72.546  21.293  1.00  0.00     0.162 HD
ENDROOT
BRANCH   1   3
ATOM      3  C   UNL     1      21.676  72.776  22.717  1.00  0.00     0.143 C 
BRANCH   3   4
ATOM      4  C   UNL     1      22.301  74.114  23.132  1.00  0.00     0.181 C 
BRANCH   4   5
ATOM      5  O   UNL     1      22.012  74.354  24.518  1.00  0.00    -0.383 OA
ATOM      6  C   UNL     1      21.252  75.543  24.690  1.00  0.00     0.194 C 
ENDBRANCH   4   5
ENDBRANCH   3   4
ENDBRANCH   1   3
BRANCH   1   7
ATOM      7  C   UNL     1      22.078  70.850  21.262  1.00  0.00     0.137 A 
ATOM      8  N   UNL     1      21.323  71.082  20.174  1.00  0.00    -0.219 NA
ATOM      9  C   UNL     1      22.304  69.546  21.748  1.00  0.00     0.043 A 
ATOM     10  C   UNL     1      20.821  70.011  19.552  1.00  0.00     0.224 A 
ATOM     11  C   UNL     1      23.051  69.228  22.914  1.00  0.00     0.023 A 
ATOM     12  C   UNL     1      21.729  68.512  20.998  1.00  0.00     0.076 A 
ATOM     13  N   UNL     1      20.995  68.733  19.903  1.00  0.00    -0.236 NA
ATOM     14  C   UNL     1      23.245  67.902  23.330  1.00  0.00    -0.014 A 
ATOM     15  C   UNL     1      21.925  67.202  21.412  1.00  0.00     0.030 A 
ATOM     16  C   UNL     1      22.670  66.892  22.555  1.00  0.00     0.011 A 
BRANCH  14  17
ATOM     17  C   UNL     1      24.011  67.592  24.551  1.00  0.00     0.024 A 
ATOM     18  C   UNL     1      24.868  66.473  24.554  1.00  0.00     0.012 A 
ATOM     19  C   UNL     1      23.919  68.376  25.724  1.00  0.00     0.126 A 
ATOM     20  C   UNL     1      25.616  66.140  25.683  1.00  0.00     0.001 A 
ATOM     21  C   UNL     1      24.677  68.033  26.852  1.00  0.00     0.047 A 
ATOM     22  C   UNL     1      25.522  66.920  26.829  1.00  0.00     0.004 A 
BRANCH  19  23
ATOM     23  O   UNL     1      23.058  69.445  25.674  1.00  0.00    -0.496 OA
ATOM     24  C   UNL     1      23.456  70.645  26.322  1.00  0.00     0.278 C 
ENDBRANCH  19  23
ENDBRANCH  14  17
ENDBRANCH   1   7
TORSDOF 6
ENDMDL
MODEL 7
REMARK VINA RESULT:    -7.363      2.646      5.273
REMARK INTER + INTRA:         -10.392
REMARK INTER:                  -9.979
REMARK INTRA:                  -0.413
REMARK UNBOUND:                -0.447
REMARK SMILES COCCNc1ncnc2ccc(-c3ccccc3OC)cc12
REMARK SMILES IDX 5 1 4 3 3 4 2 5 1 6 6 7 7 8 23 9 8 10 22 11 10 12 9 13 13 14
REMARK SMILES IDX 11 15 12 16 14 17 15 18 19 19 16 20 18 21 17 22 20 23 21 24
REMARK H PARENT 5 2
ROOT
ATOM      1  N   UNL     1      21.647  66.097  21.078  1.00  0.00    -0.367 N 
ATOM      2  H   UNL     1      21.233  66.826  21.663  1.00  0.00     0.162 HD
ENDROOT
BRANCH   1   3
ATOM      3  C   UNL     1      21.922  66.662  19.750  1.00  0.00     0.143 C 
BRANCH   3   4
ATOM      4  C   UNL     1      21.383  68.093  19.624  1.00  0.00     0.181 C 
BRANCH   4   5
ATOM      5  O   UNL     1      20.419  68.321  20.665  1.00  0.00    -0.383 OA
ATOM      6  C   UNL     1      19.380  69.187  20.227  1.00  0.00     0.194 C 
ENDBRANCH   4   5
ENDBRANCH   3   4
ENDBRANCH   1   3
BRANCH   1   7
ATOM      7  C   UNL     1      22.749  65.542  21.762  1.00  0.00     0.137 A 
ATOM      8  N   UNL     1      23.157  64.303  21.437  1.00  0.00    -0.219 NA
ATOM      9  C   UNL     1      23.365  66.283  22.792  1.00  0.00     0.043 A 
ATOM     10  C   UNL     1      24.200  63.816  22.118  1.00  0.00     0.224 A 
ATOM     11  C   UNL     1      22.961  67.576  23.220  1.00  0.00     0.023 A 
ATOM     12  C   UNL     1      24.452  65.661  23.419  1.00  0.00     0.076 A 
ATOM     13  N   UNL     1      24.877  64.438  23.087  1.00  0.00    -0.236 NA
ATOM     14  C   UNL     1      23.632  68.260  24.245  1.00  0.00    -0.014 A 
ATOM     15  C   UNL     1      25.113  66.342  24.431  1.00  0.00     0.030 A 
ATOM     16  C   UNL     1      24.720  67.619  24.843  1.00  0.00     0.011 A 
BRANCH  14  17
ATOM     17  C   UNL     1      23.188  69.595  24.685  1.00  0.00     0.024 A 
ATOM     18  C   UNL     1      23.366  69.963  26.034  1.00  0.00     0.012 A 
ATOM     19  C   UNL     1      22.590  70.526  23.804  1.00  0.00     0.126 A 
ATOM     20  C   UNL     1      22.967  71.216  26.499  1.00  0.00     0.001 A 
ATOM     21  C   UNL     1      22.195  71.782  24.282  1.00  0.00     0.047 A 
ATOM     22  C   UNL     1      22.385  72.124  25.624  1.00  0.00     0.004 A 
BRANCH  19  23
ATOM     23  O   UNL     1      22.426  70.112  22.505  1.00  0.00    -0.496 OA
ATOM     24  C   UNL     1      22.459  71.102  21.487  1.00  0.00     0.278 C 
ENDBRANCH  19  23
ENDBRANCH  14  17
ENDBRANCH   1   7
TORSDOF 6
ENDMDL
MODEL 8
REMARK VINA RESULT:    -7.345      4.095      6.974
REMARK INTER + INTRA:         -10.368
REMARK INTER:                  -9.729
REMARK INTRA:                  -0.639
REMARK UNBOUND:                -0.447
REMARK SMILES COCCNc1ncnc2ccc(-c3ccccc3OC)cc12
REMARK SMILES IDX 5 1 4 3 3 4 2 5 1 6 6 7 7 8 23 9 8 10 22 11 10 12 9 13 13 14
REMARK SMILES IDX 11 15 12 16 14 17 15 18 19 19 16 20 18 21 17 22 20 23 21 24
REMARK H PARENT 5 2
ROOT
ATOM      1  N   UNL     1      19.825  76.553  24.797  1.00  0.00    -0.367 N 
ATOM      2  H   UNL     1      19.947  76.154  25.729  1.00  0.00     0.162 HD
ENDROOT
BRANCH   1   3
ATOM      3  C   UNL     1      18.797  77.600  24.867  1.00  0.00     0.143 C 
BRANCH   3   4
ATOM      4  C   UNL     1      18.587  78.088  26.306  1.00  0.00     0.181 C 
BRANCH   4   5
ATOM      5  O   UNL     1      17.196  77.966  26.642  1.00  0.00    -0.383 OA
ATOM      6  C   UNL     1      16.446  77.439  25.556  1.00  0.00     0.194 C 
ENDBRANCH   4   5
ENDBRANCH   3   4
ENDBRANCH   1   3
BRANCH   1   7
ATOM      7  C   UNL     1      21.087  76.947  24.305  1.00  0.00     0.137 A 
ATOM      8  N   UNL     1      21.376  78.259  24.238  1.00  0.00    -0.219 NA
ATOM      9  C   UNL     1      21.992  75.961  23.862  1.00  0.00     0.043 A 
ATOM     10  C   UNL     1      22.581  78.584  23.759  1.00  0.00     0.224 A 
ATOM     11  C   UNL     1      21.738  74.563  23.860  1.00  0.00     0.023 A 
ATOM     12  C   UNL     1      23.223  76.436  23.391  1.00  0.00     0.076 A 
ATOM     13  N   UNL     1      23.526  77.737  23.341  1.00  0.00    -0.236 NA
ATOM     14  C   UNL     1      22.694  73.638  23.415  1.00  0.00    -0.014 A 
ATOM     15  C   UNL     1      24.166  75.517  22.952  1.00  0.00     0.030 A 
ATOM     16  C   UNL     1      23.917  74.141  22.962  1.00  0.00     0.011 A 
BRANCH  14  17
ATOM     17  C   UNL     1      22.408  72.192  23.406  1.00  0.00     0.024 A 
ATOM     18  C   UNL     1      22.008  71.582  22.201  1.00  0.00     0.012 A 
ATOM     19  C   UNL     1      22.519  71.389  24.566  1.00  0.00     0.126 A 
ATOM     20  C   UNL     1      21.729  70.217  22.141  1.00  0.00     0.001 A 
ATOM     21  C   UNL     1      22.238  70.018  24.492  1.00  0.00     0.047 A 
ATOM     22  C   UNL     1      21.846  69.437  23.284  1.00  0.00     0.004 A 
BRANCH  19  23
ATOM     23  O   UNL     1      22.897  72.036  25.717  1.00  0.00    -0.496 OA
ATOM     24  C   UNL     1      23.039  71.256  26.896  1.00  0.00     0.278 C 
ENDBRANCH  19  23
ENDBRANCH  14  17
ENDBRANCH   1   7
TORSDOF 6
ENDMDL
MODEL 9
REMARK VINA RESULT:    -7.232      1.697      2.257
REMARK INTER + INTRA:         -10.215
REMARK INTER:                 -10.301
REMARK INTRA:                   0.086
REMARK UNBOUND:                -0.447
REMARK SMILES COCCNc1ncnc2ccc(-c3ccccc3OC)cc12
REMARK SMILES IDX 5 1 4 3 3 4 2 5 1 6 6 7 7 8 23 9 8 10 22 11 10 12 9 13 13 14
REMARK SMILES IDX 11 15 12 16 14 17 15 18 19 19 16 20 18 21 17 22 20 23 21 24
REMARK H PARENT 5 2
ROOT
ATOM      1  N   UNL     1      22.424  71.819  23.742  1.00  0.00    -0.367 N 
ATOM      2  H   UNL     1      22.672  72.738  23.369  1.00  0.00     0.162 HD
ENDROOT
BRANCH   1   3
ATOM      3  C   UNL     1      21.841  71.999  25.079  1.00  0.00     0.143 C 
BRANCH   3   4
ATOM      4  C   UNL     1      22.750  71.424  26.172  1.00  0.00     0.181 C 
BRANCH   4   5
ATOM      5  O   UNL     1      22.260  71.845  27.455  1.00  0.00    -0.383 OA
ATOM      6  C   UNL     1      23.093  71.375  28.507  1.00  0.00     0.194 C 
ENDBRANCH   4   5
ENDBRANCH   3   4
ENDBRANCH   1   3
BRANCH   1   7
ATOM      7  C   UNL     1      21.620  71.150  22.795  1.00  0.00     0.137 A 
ATOM      8  N   UNL     1      20.661  71.841  22.154  1.00  0.00    -0.219 NA
ATOM      9  C   UNL     1      21.818  69.771  22.577  1.00  0.00     0.043 A 
ATOM     10  C   UNL     1      19.921  71.162  21.272  1.00  0.00     0.224 A 
ATOM     11  C   UNL     1      22.779  68.968  23.249  1.00  0.00     0.023 A 
ATOM     12  C   UNL     1      20.981  69.183  21.620  1.00  0.00     0.076 A 
ATOM     13  N   UNL     1      20.039  69.867  20.963  1.00  0.00    -0.236 NA
ATOM     14  C   UNL     1      22.927  67.602  22.969  1.00  0.00    -0.014 A 
ATOM     15  C   UNL     1      21.132  67.831  21.346  1.00  0.00     0.030 A 
ATOM     16  C   UNL     1      22.086  67.046  22.001  1.00  0.00     0.011 A 
BRANCH  14  17
ATOM     17  C   UNL     1      23.920  66.781  23.687  1.00  0.00     0.024 A 
ATOM     18  C   UNL     1      24.607  67.343  24.782  1.00  0.00     0.012 A 
ATOM     19  C   UNL     1      24.210  65.447  23.319  1.00  0.00     0.126 A 
ATOM     20  C   UNL     1      25.552  66.607  25.495  1.00  0.00     0.001 A 
ATOM     21  C   UNL     1      25.160  64.716  24.046  1.00  0.00     0.047 A 
ATOM     22  C   UNL     1      25.826  65.295  25.128  1.00  0.00     0.004 A 
BRANCH  19  23
ATOM     23  O   UNL     1      23.524  64.953  22.237  1.00  0.00    -0.496 OA
ATOM     24  C   UNL     1      23.994  63.747  21.651  1.00  0.00     0.278 C 
ENDBRANCH  19  23
ENDBRANCH  14  17
ENDBRANCH   1   7
TORSDOF 6
ENDMDL
MODEL 10
REMARK VINA RESULT:    -7.217      6.777      9.401
REMARK INTER + INTRA:         -10.195
REMARK INTER:                  -9.305
REMARK INTRA:                  -0.890
REMARK UNBOUND:                -0.447
REMARK SMILES COCCNc1ncnc2ccc(-c3ccccc3OC)cc12
REMARK SMILES IDX 5 1 4 3 3 4 2 5 1 6 6 7 7 8 23 9 8 10 22 11 10 12 9 13 13 14
REMARK SMILES IDX 11 15 12 16 14 17 15 18 19 19 16 20 18 21 17 22 20 23 21 24
REMARK H PARENT 5 2
ROOT
ATOM      1  N   UNL     1      17.174  77.529  22.063  1.00  0.00    -0.367 N 
ATOM      2  H   UNL     1      18.137  77.324  21.789  1.00  0.00     0.162 HD
ENDROOT
BRANCH   1   3
ATOM      3  C   UNL     1      16.343  76.354  21.765  1.00  0.00     0.143 C 
BRANCH   3   4
ATOM      4  C   UNL     1      17.198  75.099  21.550  1.00  0.00     0.181 C 
BRANCH   4   5
ATOM      5  O   UNL     1      16.753  74.072  22.450  1.00  0.00    -0.383 OA
ATOM      6  C   UNL     1      17.088  72.778  21.965  1.00  0.00     0.194 C 
ENDBRANCH   4   5
ENDBRANCH   3   4
ENDBRANCH   1   3
BRANCH   1   7
ATOM      7  C   UNL     1      17.170  77.974  23.402  1.00  0.00     0.137 A 
ATOM      8  N   UNL     1      16.054  78.539  23.894  1.00  0.00    -0.219 NA
ATOM      9  C   UNL     1      18.346  77.852  24.171  1.00  0.00     0.043 A 
ATOM     10  C   UNL     1      16.102  78.954  25.165  1.00  0.00     0.224 A 
ATOM     11  C   UNL     1      19.573  77.309  23.704  1.00  0.00     0.023 A 
ATOM     12  C   UNL     1      18.258  78.317  25.489  1.00  0.00     0.076 A 
ATOM     13  N   UNL     1      17.146  78.861  25.993  1.00  0.00    -0.236 NA
ATOM     14  C   UNL     1      20.700  77.208  24.533  1.00  0.00    -0.014 A 
ATOM     15  C   UNL     1      19.375  78.214  26.306  1.00  0.00     0.030 A 
ATOM     16  C   UNL     1      20.579  77.669  25.847  1.00  0.00     0.011 A 
BRANCH  14  17
ATOM     17  C   UNL     1      21.970  76.655  24.027  1.00  0.00     0.024 A 
ATOM     18  C   UNL     1      23.029  77.536  23.731  1.00  0.00     0.012 A 
ATOM     19  C   UNL     1      22.167  75.269  23.827  1.00  0.00     0.126 A 
ATOM     20  C   UNL     1      24.250  77.062  23.254  1.00  0.00     0.001 A 
ATOM     21  C   UNL     1      23.400  74.804  23.349  1.00  0.00     0.047 A 
ATOM     22  C   UNL     1      24.435  75.698  23.065  1.00  0.00     0.004 A 
BRANCH  19  23
ATOM     23  O   UNL     1      21.099  74.455  24.116  1.00  0.00    -0.496 OA
ATOM     24  C   UNL     1      20.485  73.764  23.038  1.00  0.00     0.278 C 
ENDBRANCH  19  23
ENDBRANCH  14  17
ENDBRANCH   1   7
TORSDOF 6
ENDMDL
