MODEL 1
REMARK VINA RESULT:    -7.134      0.000      0.000
REMARK INTER + INTRA:         -12.228
REMARK INTER:                 -11.305
REMARK INTRA:                  -0.923
REMARK UNBOUND:                -0.923
REMARK SMILES CC[NH+](CC)CCCNc1oc(-c2ccc(OC)c(OC)c2)nc1C#N
REMARK SMILES IDX 8 1 7 2 6 3 3 4 2 6 1 7 4 8 5 9 9 10 10 12 11 13 24 14 12 15
REMARK SMILES IDX 23 16 25 17 26 18 13 19 14 20 22 21 15 22 19 23 16 24 20 25
REMARK SMILES IDX 21 26 17 27 18 28
REMARK H PARENT 3 5 9 11
ROOT
ATOM      1  C   UNL     1      19.419  77.038  23.646  1.00  0.00     0.122 C 
ENDROOT
BRANCH   1   2
ATOM      2  C   UNL     1      19.478  78.530  23.982  1.00  0.00     0.083 C 
BRANCH   2   3
ATOM      3  C   UNL     1      18.210  79.008  24.687  1.00  0.00     0.264 C 
BRANCH   3   4
ATOM      4  N   UNL     1      16.991  78.239  24.179  1.00  0.00    -0.335 N 
ATOM      5  H   UNL     1      17.328  77.516  23.529  1.00  0.00     0.348 HD
BRANCH   4   6
ATOM      6  C   UNL     1      16.046  79.144  23.399  1.00  0.00     0.258 C 
ATOM      7  C   UNL     1      14.613  78.670  23.563  1.00  0.00     0.071 C 
ENDBRANCH   4   6
BRANCH   4   8
ATOM      8  C   UNL     1      16.269  77.524  25.314  1.00  0.00     0.258 C 
ATOM      9  C   UNL     1      17.069  77.643  26.599  1.00  0.00     0.071 C 
ENDBRANCH   4   8
ENDBRANCH   3   4
ENDBRANCH   2   3
ENDBRANCH   1   2
BRANCH   1  10
ATOM     10  N   UNL     1      20.127  76.266  24.653  1.00  0.00    -0.353 N 
ATOM     11  H   UNL     1      19.557  75.987  25.455  1.00  0.00     0.163 HD
BRANCH  10  12
ATOM     12  C   UNL     1      21.215  75.519  24.347  1.00  0.00     0.232 A 
ATOM     13  O   UNL     1      21.136  74.163  24.512  1.00  0.00    -0.419 OA
ATOM     14  C   UNL     1      22.465  75.788  23.832  1.00  0.00     0.204 A 
ATOM     15  C   UNL     1      22.354  73.689  24.086  1.00  0.00     0.230 A 
ATOM     16  N   UNL     1      23.171  74.623  23.643  1.00  0.00    -0.196 NA
ATOM     17  C   UNL     1      22.989  77.063  23.471  1.00  0.00     0.125 C 
ATOM     18  N   UNL     1      23.356  78.125  23.182  1.00  0.00    -0.190 NA
BRANCH  15  19
ATOM     19  C   UNL     1      22.529  72.243  24.122  1.00  0.00     0.041 A 
ATOM     20  C   UNL     1      23.068  71.592  25.237  1.00  0.00     0.018 A 
ATOM     21  C   UNL     1      22.148  71.471  23.020  1.00  0.00     0.064 A 
ATOM     22  C   UNL     1      23.209  70.197  25.254  1.00  0.00     0.051 A 
ATOM     23  C   UNL     1      22.297  70.078  23.025  1.00  0.00     0.161 A 
ATOM     24  C   UNL     1      22.816  69.425  24.154  1.00  0.00     0.160 A 
BRANCH  23  25
ATOM     25  O   UNL     1      21.837  69.469  21.885  1.00  0.00    -0.493 OA
ATOM     26  C   UNL     1      20.432  69.229  21.850  1.00  0.00     0.278 C 
ENDBRANCH  23  25
BRANCH  24  27
ATOM     27  O   UNL     1      22.863  68.058  24.129  1.00  0.00    -0.493 OA
ATOM     28  C   UNL     1      24.141  67.435  24.081  1.00  0.00     0.278 C 
ENDBRANCH  24  27
ENDBRANCH  15  19
ENDBRANCH  10  12
ENDBRANCH   1  10
TORSDOF 10
ENDMDL
MODEL 2
REMARK VINA RESULT:    -7.046      2.817      5.409
REMARK INTER + INTRA:         -12.089
REMARK INTER:                 -11.343
REMARK INTRA:                  -0.745
REMARK UNBOUND:                -0.923
REMARK SMILES CC[NH+](CC)CCCNc1oc(-c2ccc(OC)c(OC)c2)nc1C#N
REMARK SMILES IDX 8 1 7 2 6 3 3 4 2 6 1 7 4 8 5 9 9 10 10 12 11 13 24 14 12 15
REMARK SMILES IDX 23 16 25 17 26 18 13 19 14 20 22 21 15 22 19 23 16 24 20 25
REMARK SMILES IDX 21 26 17 27 18 28
REMARK H PARENT 3 5 9 11
ROOT
ATOM      1  C   UNL     1      21.884  73.031  22.949  1.00  0.00     0.122 C 
ENDROOT
BRANCH   1   2
ATOM      2  C   UNL     1      20.843  73.987  23.538  1.00  0.00     0.083 C 
BRANCH   2   3
ATOM      3  C   UNL     1      21.489  75.086  24.380  1.00  0.00     0.264 C 
BRANCH   3   4
ATOM      4  N   UNL     1      20.451  76.134  24.781  1.00  0.00    -0.335 N 
ATOM      5  H   UNL     1      19.697  75.649  25.284  1.00  0.00     0.348 HD
BRANCH   4   6
ATOM      6  C   UNL     1      19.826  76.796  23.559  1.00  0.00     0.258 C 
ATOM      7  C   UNL     1      18.374  77.141  23.836  1.00  0.00     0.071 C 
ENDBRANCH   4   6
BRANCH   4   8
ATOM      8  C   UNL     1      21.040  77.166  25.734  1.00  0.00     0.258 C 
ATOM      9  C   UNL     1      22.322  77.739  25.157  1.00  0.00     0.071 C 
ENDBRANCH   4   8
ENDBRANCH   3   4
ENDBRANCH   2   3
ENDBRANCH   1   2
BRANCH   1  10
ATOM     10  N   UNL     1      21.313  71.705  22.783  1.00  0.00    -0.353 N 
ATOM     11  H   UNL     1      20.822  71.560  21.898  1.00  0.00     0.163 HD
BRANCH  10  12
ATOM     12  C   UNL     1      21.821  70.623  23.420  1.00  0.00     0.232 A 
ATOM     13  O   UNL     1      21.982  69.467  22.704  1.00  0.00    -0.419 OA
ATOM     14  C   UNL     1      22.294  70.376  24.691  1.00  0.00     0.204 A 
ATOM     15  C   UNL     1      22.545  68.584  23.593  1.00  0.00     0.230 A 
ATOM     16  N   UNL     1      22.777  69.092  24.786  1.00  0.00    -0.196 NA
ATOM     17  C   UNL     1      22.355  71.296  25.778  1.00  0.00     0.125 C 
ATOM     18  N   UNL     1      22.393  72.093  26.620  1.00  0.00    -0.190 NA
BRANCH  15  19
ATOM     19  C   UNL     1      22.861  67.260  23.072  1.00  0.00     0.041 A 
ATOM     20  C   UNL     1      22.130  66.684  22.027  1.00  0.00     0.018 A 
ATOM     21  C   UNL     1      23.926  66.536  23.617  1.00  0.00     0.064 A 
ATOM     22  C   UNL     1      22.467  65.417  21.530  1.00  0.00     0.051 A 
ATOM     23  C   UNL     1      24.260  65.265  23.134  1.00  0.00     0.161 A 
ATOM     24  C   UNL     1      23.540  64.699  22.070  1.00  0.00     0.160 A 
BRANCH  23  25
ATOM     25  O   UNL     1      25.353  64.709  23.749  1.00  0.00    -0.493 OA
ATOM     26  C   UNL     1      25.751  65.341  24.964  1.00  0.00     0.278 C 
ENDBRANCH  23  25
BRANCH  24  27
ATOM     27  O   UNL     1      23.964  63.490  21.590  1.00  0.00    -0.493 OA
ATOM     28  C   UNL     1      24.856  63.488  20.481  1.00  0.00     0.278 C 
ENDBRANCH  24  27
ENDBRANCH  15  19
ENDBRANCH  10  12
ENDBRANCH   1  10
TORSDOF 10
ENDMDL
MODEL 3
REMARK VINA RESULT:    -6.976      0.988      1.944
REMARK INTER + INTRA:         -11.978
REMARK INTER:                 -11.172
REMARK INTRA:                  -0.806
REMARK UNBOUND:                -0.923
REMARK SMILES CC[NH+](CC)CCCNc1oc(-c2ccc(OC)c(OC)c2)nc1C#N
REMARK SMILES IDX 8 1 7 2 6 3 3 4 2 6 1 7 4 8 5 9 9 10 10 12 11 13 24 14 12 15
REMARK SMILES IDX 23 16 25 17 26 18 13 19 14 20 22 21 15 22 19 23 16 24 20 25
REMARK SMILES IDX 21 26 17 27 18 28
REMARK H PARENT 3 5 9 11
ROOT
ATOM      1  C   UNL     1      19.212  77.231  23.758  1.00  0.00     0.122 C 
ENDROOT
BRANCH   1   2
ATOM      2  C   UNL     1      18.896  78.669  24.179  1.00  0.00     0.083 C 
BRANCH   2   3
ATOM      3  C   UNL     1      17.520  79.119  23.691  1.00  0.00     0.264 C 
BRANCH   3   4
ATOM      4  N   UNL     1      16.419  78.517  24.563  1.00  0.00    -0.335 N 
ATOM      5  H   UNL     1      16.357  77.515  24.339  1.00  0.00     0.348 HD
BRANCH   4   6
ATOM      6  C   UNL     1      15.061  79.134  24.253  1.00  0.00     0.258 C 
ATOM      7  C   UNL     1      14.621  78.754  22.851  1.00  0.00     0.071 C 
ENDBRANCH   4   6
BRANCH   4   8
ATOM      8  C   UNL     1      16.757  78.628  26.044  1.00  0.00     0.258 C 
ATOM      9  C   UNL     1      16.722  77.256  26.694  1.00  0.00     0.071 C 
ENDBRANCH   4   8
ENDBRANCH   3   4
ENDBRANCH   2   3
ENDBRANCH   1   2
BRANCH   1  10
ATOM     10  N   UNL     1      20.063  76.591  24.746  1.00  0.00    -0.353 N 
ATOM     11  H   UNL     1      19.601  76.381  25.635  1.00  0.00     0.163 HD
BRANCH  10  12
ATOM     12  C   UNL     1      21.138  75.848  24.391  1.00  0.00     0.232 A 
ATOM     13  O   UNL     1      21.041  74.486  24.477  1.00  0.00    -0.419 OA
ATOM     14  C   UNL     1      22.389  76.130  23.884  1.00  0.00     0.204 A 
ATOM     15  C   UNL     1      22.250  74.022  24.016  1.00  0.00     0.230 A 
ATOM     16  N   UNL     1      23.077  74.969  23.623  1.00  0.00    -0.196 NA
ATOM     17  C   UNL     1      22.929  77.417  23.595  1.00  0.00     0.125 C 
ATOM     18  N   UNL     1      23.308  78.489  23.367  1.00  0.00    -0.190 NA
BRANCH  15  19
ATOM     19  C   UNL     1      22.406  72.574  23.966  1.00  0.00     0.041 A 
ATOM     20  C   UNL     1      22.167  71.845  22.795  1.00  0.00     0.018 A 
ATOM     21  C   UNL     1      22.809  71.880  25.111  1.00  0.00     0.064 A 
ATOM     22  C   UNL     1      22.343  70.455  22.768  1.00  0.00     0.051 A 
ATOM     23  C   UNL     1      22.976  70.490  25.094  1.00  0.00     0.161 A 
ATOM     24  C   UNL     1      22.758  69.764  23.912  1.00  0.00     0.160 A 
BRANCH  23  25
ATOM     25  O   UNL     1      23.415  69.971  26.286  1.00  0.00    -0.493 OA
ATOM     26  C   UNL     1      23.003  70.689  27.447  1.00  0.00     0.278 C 
ENDBRANCH  23  25
BRANCH  24  27
ATOM     27  O   UNL     1      23.014  68.420  23.938  1.00  0.00    -0.493 OA
ATOM     28  C   UNL     1      22.711  67.660  22.775  1.00  0.00     0.278 C 
ENDBRANCH  24  27
ENDBRANCH  15  19
ENDBRANCH  10  12
ENDBRANCH   1  10
TORSDOF 10
ENDMDL
MODEL 4
REMARK VINA RESULT:    -6.950      2.328      4.649
REMARK INTER + INTRA:         -11.937
REMARK INTER:                 -11.123
REMARK INTRA:                  -0.814
REMARK UNBOUND:                -0.923
REMARK SMILES CC[NH+](CC)CCCNc1oc(-c2ccc(OC)c(OC)c2)nc1C#N
REMARK SMILES IDX 8 1 7 2 6 3 3 4 2 6 1 7 4 8 5 9 9 10 10 12 11 13 24 14 12 15
REMARK SMILES IDX 23 16 25 17 26 18 13 19 14 20 22 21 15 22 19 23 16 24 20 25
REMARK SMILES IDX 21 26 17 27 18 28
REMARK H PARENT 3 5 9 11
ROOT
ATOM      1  C   UNL     1      22.266  74.416  23.486  1.00  0.00     0.122 C 
ENDROOT
BRANCH   1   2
ATOM      2  C   UNL     1      21.445  75.267  24.459  1.00  0.00     0.083 C 
BRANCH   2   3
ATOM      3  C   UNL     1      20.390  76.103  23.737  1.00  0.00     0.264 C 
BRANCH   3   4
ATOM      4  N   UNL     1      20.714  77.592  23.853  1.00  0.00    -0.335 N 
ATOM      5  H   UNL     1      20.865  77.953  22.902  1.00  0.00     0.348 HD
BRANCH   4   6
ATOM      6  C   UNL     1      22.002  77.823  24.633  1.00  0.00     0.258 C 
ATOM      7  C   UNL     1      23.076  78.382  23.717  1.00  0.00     0.071 C 
ENDBRANCH   4   6
BRANCH   4   8
ATOM      8  C   UNL     1      19.551  78.371  24.453  1.00  0.00     0.258 C 
ATOM      9  C   UNL     1      18.312  77.496  24.515  1.00  0.00     0.071 C 
ENDBRANCH   4   8
ENDBRANCH   3   4
ENDBRANCH   2   3
ENDBRANCH   1   2
BRANCH   1  10
ATOM     10  N   UNL     1      21.388  73.707  22.571  1.00  0.00    -0.353 N 
ATOM     11  H   UNL     1      21.284  74.146  21.653  1.00  0.00     0.163 HD
BRANCH  10  12
ATOM     12  C   UNL     1      21.176  72.373  22.672  1.00  0.00     0.232 A 
ATOM     13  O   UNL     1      22.216  71.582  23.078  1.00  0.00    -0.419 OA
ATOM     14  C   UNL     1      20.087  71.546  22.498  1.00  0.00     0.204 A 
ATOM     15  C   UNL     1      21.690  70.313  23.124  1.00  0.00     0.230 A 
ATOM     16  N   UNL     1      20.412  70.247  22.813  1.00  0.00    -0.196 NA
ATOM     17  C   UNL     1      18.771  71.929  22.106  1.00  0.00     0.125 C 
ATOM     18  N   UNL     1      17.717  72.303  21.799  1.00  0.00    -0.190 NA
BRANCH  15  19
ATOM     19  C   UNL     1      22.592  69.259  23.570  1.00  0.00     0.041 A 
ATOM     20  C   UNL     1      22.823  68.111  22.804  1.00  0.00     0.018 A 
ATOM     21  C   UNL     1      23.256  69.387  24.794  1.00  0.00     0.064 A 
ATOM     22  C   UNL     1      23.710  67.120  23.246  1.00  0.00     0.051 A 
ATOM     23  C   UNL     1      24.135  68.395  25.248  1.00  0.00     0.161 A 
ATOM     24  C   UNL     1      24.383  67.256  24.466  1.00  0.00     0.160 A 
BRANCH  23  25
ATOM     25  O   UNL     1      24.735  68.694  26.445  1.00  0.00    -0.493 OA
ATOM     26  C   UNL     1      23.961  68.387  27.603  1.00  0.00     0.278 C 
ENDBRANCH  23  25
BRANCH  24  27
ATOM     27  O   UNL     1      25.311  66.362  24.927  1.00  0.00    -0.493 OA
ATOM     28  C   UNL     1      25.287  65.043  24.396  1.00  0.00     0.278 C 
ENDBRANCH  24  27
ENDBRANCH  15  19
ENDBRANCH  10  12
ENDBRANCH   1  10
TORSDOF 10
ENDMDL
MODEL 5
REMARK VINA RESULT:    -6.810      2.851      5.520
REMARK INTER + INTRA:         -11.715
REMARK INTER:                 -11.122
REMARK INTRA:                  -0.593
REMARK UNBOUND:                -0.923
REMARK SMILES CC[NH+](CC)CCCNc1oc(-c2ccc(OC)c(OC)c2)nc1C#N
REMARK SMILES IDX 8 1 7 2 6 3 3 4 2 6 1 7 4 8 5 9 9 10 10 12 11 13 24 14 12 15
REMARK SMILES IDX 23 16 25 17 26 18 13 19 14 20 22 21 15 22 19 23 16 24 20 25
REMARK SMILES IDX 21 26 17 27 18 28
REMARK H PARENT 3 5 9 11
ROOT
ATOM      1  C   UNL     1      22.649  72.892  24.269  1.00  0.00     0.122 C 
ENDROOT
BRANCH   1   2
ATOM      2  C   UNL     1      21.613  73.912  24.750  1.00  0.00     0.083 C 
BRANCH   2   3
ATOM      3  C   UNL     1      21.430  75.055  23.754  1.00  0.00     0.264 C 
BRANCH   3   4
ATOM      4  N   UNL     1      21.476  76.404  24.472  1.00  0.00    -0.335 N 
ATOM      5  H   UNL     1      21.330  76.228  25.474  1.00  0.00     0.348 HD
BRANCH   4   6
ATOM      6  C   UNL     1      20.355  77.323  24.005  1.00  0.00     0.258 C 
ATOM      7  C   UNL     1      19.627  77.910  25.201  1.00  0.00     0.071 C 
ENDBRANCH   4   6
BRANCH   4   8
ATOM      8  C   UNL     1      22.839  77.067  24.324  1.00  0.00     0.258 C 
ATOM      9  C   UNL     1      22.697  78.406  23.621  1.00  0.00     0.071 C 
ENDBRANCH   4   8
ENDBRANCH   3   4
ENDBRANCH   2   3
ENDBRANCH   1   2
BRANCH   1  10
ATOM     10  N   UNL     1      22.034  71.585  24.111  1.00  0.00    -0.353 N 
ATOM     11  H   UNL     1      21.440  71.491  23.284  1.00  0.00     0.163 HD
BRANCH  10  12
ATOM     12  C   UNL     1      22.590  70.466  24.633  1.00  0.00     0.232 A 
ATOM     13  O   UNL     1      22.780  69.391  23.807  1.00  0.00    -0.419 OA
ATOM     14  C   UNL     1      23.093  70.115  25.868  1.00  0.00     0.204 A 
ATOM     15  C   UNL     1      23.389  68.447  24.598  1.00  0.00     0.230 A 
ATOM     16  N   UNL     1      23.623  68.847  25.832  1.00  0.00    -0.196 NA
ATOM     17  C   UNL     1      23.141  70.928  27.038  1.00  0.00     0.125 C 
ATOM     18  N   UNL     1      23.165  71.641  27.953  1.00  0.00    -0.190 NA
BRANCH  15  19
ATOM     19  C   UNL     1      23.742  67.193  23.947  1.00  0.00     0.041 A 
ATOM     20  C   UNL     1      24.901  66.485  24.284  1.00  0.00     0.018 A 
ATOM     21  C   UNL     1      22.905  66.666  22.958  1.00  0.00     0.064 A 
ATOM     22  C   UNL     1      25.208  65.271  23.656  1.00  0.00     0.051 A 
ATOM     23  C   UNL     1      23.212  65.459  22.317  1.00  0.00     0.161 A 
ATOM     24  C   UNL     1      24.363  64.739  22.675  1.00  0.00     0.160 A 
BRANCH  23  25
ATOM     25  O   UNL     1      22.269  65.062  21.403  1.00  0.00    -0.493 OA
ATOM     26  C   UNL     1      22.184  65.870  20.231  1.00  0.00     0.278 C 
ENDBRANCH  23  25
BRANCH  24  27
ATOM     27  O   UNL     1      24.567  63.529  22.070  1.00  0.00    -0.493 OA
ATOM     28  C   UNL     1      25.413  63.487  20.928  1.00  0.00     0.278 C 
ENDBRANCH  24  27
ENDBRANCH  15  19
ENDBRANCH  10  12
ENDBRANCH   1  10
TORSDOF 10
ENDMDL
MODEL 6
REMARK VINA RESULT:    -6.770      3.884      6.674
REMARK INTER + INTRA:         -11.652
REMARK INTER:                 -10.489
REMARK INTRA:                  -1.163
REMARK UNBOUND:                -0.923
REMARK SMILES CC[NH+](CC)CCCNc1oc(-c2ccc(OC)c(OC)c2)nc1C#N
REMARK SMILES IDX 8 1 7 2 6 3 3 4 2 6 1 7 4 8 5 9 9 10 10 12 11 13 24 14 12 15
REMARK SMILES IDX 23 16 25 17 26 18 13 19 14 20 22 21 15 22 19 23 16 24 20 25
REMARK SMILES IDX 21 26 17 27 18 28
REMARK H PARENT 3 5 9 11
ROOT
ATOM      1  C   UNL     1      18.806  72.249  22.079  1.00  0.00     0.122 C 
ENDROOT
BRANCH   1   2
ATOM      2  C   UNL     1      18.380  71.014  21.280  1.00  0.00     0.083 C 
BRANCH   2   3
ATOM      3  C   UNL     1      18.918  71.043  19.851  1.00  0.00     0.264 C 
BRANCH   3   4
ATOM      4  N   UNL     1      19.510  69.686  19.474  1.00  0.00    -0.335 N 
ATOM      5  H   UNL     1      19.051  68.973  20.056  1.00  0.00     0.348 HD
BRANCH   4   6
ATOM      6  C   UNL     1      21.002  69.624  19.776  1.00  0.00     0.258 C 
ATOM      7  C   UNL     1      21.528  68.221  19.531  1.00  0.00     0.071 C 
ENDBRANCH   4   6
BRANCH   4   8
ATOM      8  C   UNL     1      19.220  69.336  18.020  1.00  0.00     0.258 C 
ATOM      9  C   UNL     1      17.732  69.113  17.821  1.00  0.00     0.071 C 
ENDBRANCH   4   8
ENDBRANCH   3   4
ENDBRANCH   2   3
ENDBRANCH   1   2
BRANCH   1  10
ATOM     10  N   UNL     1      20.239  72.457  21.959  1.00  0.00    -0.353 N 
ATOM     11  H   UNL     1      20.507  73.263  21.390  1.00  0.00     0.163 HD
BRANCH  10  12
ATOM     12  C   UNL     1      21.106  72.023  22.906  1.00  0.00     0.232 A 
ATOM     13  O   UNL     1      21.561  70.735  22.824  1.00  0.00    -0.419 OA
ATOM     14  C   UNL     1      21.730  72.600  23.991  1.00  0.00     0.204 A 
ATOM     15  C   UNL     1      22.438  70.609  23.874  1.00  0.00     0.230 A 
ATOM     16  N   UNL     1      22.593  71.709  24.583  1.00  0.00    -0.196 NA
ATOM     17  C   UNL     1      21.587  73.943  24.449  1.00  0.00     0.125 C 
ATOM     18  N   UNL     1      21.441  75.049  24.766  1.00  0.00    -0.190 NA
BRANCH  15  19
ATOM     19  C   UNL     1      23.107  69.321  24.003  1.00  0.00     0.041 A 
ATOM     20  C   UNL     1      22.808  68.245  23.159  1.00  0.00     0.018 A 
ATOM     21  C   UNL     1      24.082  69.141  24.989  1.00  0.00     0.064 A 
ATOM     22  C   UNL     1      23.479  67.022  23.290  1.00  0.00     0.051 A 
ATOM     23  C   UNL     1      24.749  67.918  25.134  1.00  0.00     0.161 A 
ATOM     24  C   UNL     1      24.463  66.848  24.271  1.00  0.00     0.160 A 
BRANCH  23  25
ATOM     25  O   UNL     1      25.702  67.922  26.120  1.00  0.00    -0.493 OA
ATOM     26  C   UNL     1      25.251  67.486  27.401  1.00  0.00     0.278 C 
ENDBRANCH  23  25
BRANCH  24  27
ATOM     27  O   UNL     1      25.204  65.706  24.411  1.00  0.00    -0.493 OA
ATOM     28  C   UNL     1      24.891  64.601  23.572  1.00  0.00     0.278 C 
ENDBRANCH  24  27
ENDBRANCH  15  19
ENDBRANCH  10  12
ENDBRANCH   1  10
TORSDOF 10
ENDMDL
MODEL 7
REMARK VINA RESULT:    -6.686      2.771      5.220
REMARK INTER + INTRA:         -11.518
REMARK INTER:                 -10.768
REMARK INTRA:                  -0.750
REMARK UNBOUND:                -0.923
REMARK SMILES CC[NH+](CC)CCCNc1oc(-c2ccc(OC)c(OC)c2)nc1C#N
REMARK SMILES IDX 8 1 7 2 6 3 3 4 2 6 1 7 4 8 5 9 9 10 10 12 11 13 24 14 12 15
REMARK SMILES IDX 23 16 25 17 26 18 13 19 14 20 22 21 15 22 19 23 16 24 20 25
REMARK SMILES IDX 21 26 17 27 18 28
REMARK H PARENT 3 5 9 11
ROOT
ATOM      1  C   UNL     1      20.670  73.464  23.374  1.00  0.00     0.122 C 
ENDROOT
BRANCH   1   2
ATOM      2  C   UNL     1      21.787  74.341  23.944  1.00  0.00     0.083 C 
BRANCH   2   3
ATOM      3  C   UNL     1      21.239  75.489  24.791  1.00  0.00     0.264 C 
BRANCH   3   4
ATOM      4  N   UNL     1      21.368  76.815  24.043  1.00  0.00    -0.335 N 
ATOM      5  H   UNL     1      20.737  76.779  23.232  1.00  0.00     0.348 HD
BRANCH   4   6
ATOM      6  C   UNL     1      22.780  77.019  23.509  1.00  0.00     0.258 C 
ATOM      7  C   UNL     1      23.239  78.443  23.771  1.00  0.00     0.071 C 
ENDBRANCH   4   6
BRANCH   4   8
ATOM      8  C   UNL     1      20.925  77.988  24.908  1.00  0.00     0.258 C 
ATOM      9  C   UNL     1      19.410  78.089  24.916  1.00  0.00     0.071 C 
ENDBRANCH   4   8
ENDBRANCH   3   4
ENDBRANCH   2   3
ENDBRANCH   1   2
BRANCH   1  10
ATOM     10  N   UNL     1      21.152  72.715  22.226  1.00  0.00    -0.353 N 
ATOM     11  H   UNL     1      21.923  73.158  21.721  1.00  0.00     0.163 HD
BRANCH  10  12
ATOM     12  C   UNL     1      21.021  71.369  22.144  1.00  0.00     0.232 A 
ATOM     13  O   UNL     1      22.084  70.591  22.515  1.00  0.00    -0.419 OA
ATOM     14  C   UNL     1      19.999  70.512  21.795  1.00  0.00     0.204 A 
ATOM     15  C   UNL     1      21.638  69.300  22.366  1.00  0.00     0.230 A 
ATOM     16  N   UNL     1      20.387  69.204  21.965  1.00  0.00    -0.196 NA
ATOM     17  C   UNL     1      18.686  70.869  21.369  1.00  0.00     0.125 C 
ATOM     18  N   UNL     1      17.630  71.220  21.042  1.00  0.00    -0.190 NA
BRANCH  15  19
ATOM     19  C   UNL     1      22.578  68.249  22.734  1.00  0.00     0.041 A 
ATOM     20  C   UNL     1      23.680  68.499  23.559  1.00  0.00     0.018 A 
ATOM     21  C   UNL     1      22.382  66.947  22.262  1.00  0.00     0.064 A 
ATOM     22  C   UNL     1      24.559  67.467  23.914  1.00  0.00     0.051 A 
ATOM     23  C   UNL     1      23.262  65.913  22.604  1.00  0.00     0.161 A 
ATOM     24  C   UNL     1      24.354  66.162  23.450  1.00  0.00     0.160 A 
BRANCH  23  25
ATOM     25  O   UNL     1      22.905  64.691  22.092  1.00  0.00    -0.493 OA
ATOM     26  C   UNL     1      22.398  64.717  20.760  1.00  0.00     0.278 C 
ENDBRANCH  23  25
BRANCH  24  27
ATOM     27  O   UNL     1      25.132  65.096  23.811  1.00  0.00    -0.493 OA
ATOM     28  C   UNL     1      25.703  65.097  25.114  1.00  0.00     0.278 C 
ENDBRANCH  24  27
ENDBRANCH  15  19
ENDBRANCH  10  12
ENDBRANCH   1  10
TORSDOF 10
ENDMDL
MODEL 8
REMARK VINA RESULT:    -6.602      2.804      3.892
REMARK INTER + INTRA:         -11.385
REMARK INTER:                 -10.494
REMARK INTRA:                  -0.891
REMARK UNBOUND:                -0.923
REMARK SMILES CC[NH+](CC)CCCNc1oc(-c2ccc(OC)c(OC)c2)nc1C#N
REMARK SMILES IDX 8 1 7 2 6 3 3 4 2 6 1 7 4 8 5 9 9 10 10 12 11 13 24 14 12 15
REMARK SMILES IDX 23 16 25 17 26 18 13 19 14 20 22 21 15 22 19 23 16 24 20 25
REMARK SMILES IDX 21 26 17 27 18 28
REMARK H PARENT 3 5 9 11
ROOT
ATOM      1  C   UNL     1      18.612  75.428  21.916  1.00  0.00     0.122 C 
ENDROOT
BRANCH   1   2
ATOM      2  C   UNL     1      18.406  76.736  22.685  1.00  0.00     0.083 C 
BRANCH   2   3
ATOM      3  C   UNL     1      19.524  76.988  23.695  1.00  0.00     0.264 C 
BRANCH   3   4
ATOM      4  N   UNL     1      18.948  77.162  25.100  1.00  0.00    -0.335 N 
ATOM      5  H   UNL     1      18.983  76.246  25.566  1.00  0.00     0.348 HD
BRANCH   4   6
ATOM      6  C   UNL     1      17.487  77.590  25.054  1.00  0.00     0.258 C 
ATOM      7  C   UNL     1      16.834  77.372  26.408  1.00  0.00     0.071 C 
ENDBRANCH   4   6
BRANCH   4   8
ATOM      8  C   UNL     1      19.786  78.124  25.931  1.00  0.00     0.258 C 
ATOM      9  C   UNL     1      21.152  77.523  26.209  1.00  0.00     0.071 C 
ENDBRANCH   4   8
ENDBRANCH   3   4
ENDBRANCH   2   3
ENDBRANCH   1   2
BRANCH   1  10
ATOM     10  N   UNL     1      18.258  74.292  22.749  1.00  0.00    -0.353 N 
ATOM     11  H   UNL     1      17.371  74.391  23.249  1.00  0.00     0.163 HD
BRANCH  10  12
ATOM     12  C   UNL     1      18.710  73.043  22.486  1.00  0.00     0.232 A 
ATOM     13  O   UNL     1      19.807  72.594  23.171  1.00  0.00    -0.419 OA
ATOM     14  C   UNL     1      18.295  72.010  21.673  1.00  0.00     0.204 A 
ATOM     15  C   UNL     1      19.991  71.307  22.726  1.00  0.00     0.230 A 
ATOM     16  N   UNL     1      19.093  70.904  21.851  1.00  0.00    -0.196 NA
ATOM     17  C   UNL     1      17.172  72.006  20.795  1.00  0.00     0.125 C 
ATOM     18  N   UNL     1      16.238  72.057  20.110  1.00  0.00    -0.190 NA
BRANCH  15  19
ATOM     19  C   UNL     1      21.092  70.569  23.332  1.00  0.00     0.041 A 
ATOM     20  C   UNL     1      21.739  71.023  24.487  1.00  0.00     0.018 A 
ATOM     21  C   UNL     1      21.521  69.369  22.757  1.00  0.00     0.064 A 
ATOM     22  C   UNL     1      22.783  70.285  25.061  1.00  0.00     0.051 A 
ATOM     23  C   UNL     1      22.572  68.632  23.319  1.00  0.00     0.161 A 
ATOM     24  C   UNL     1      23.204  69.078  24.490  1.00  0.00     0.160 A 
BRANCH  23  25
ATOM     25  O   UNL     1      22.841  67.460  22.658  1.00  0.00    -0.493 OA
ATOM     26  C   UNL     1      21.763  66.940  21.883  1.00  0.00     0.278 C 
ENDBRANCH  23  25
BRANCH  24  27
ATOM     27  O   UNL     1      24.169  68.275  25.035  1.00  0.00    -0.493 OA
ATOM     28  C   UNL     1      25.124  68.874  25.902  1.00  0.00     0.278 C 
ENDBRANCH  24  27
ENDBRANCH  15  19
ENDBRANCH  10  12
ENDBRANCH   1  10
TORSDOF 10
ENDMDL
MODEL 9
REMARK VINA RESULT:    -6.528      2.828      4.449
REMARK INTER + INTRA:         -11.267
REMARK INTER:                 -10.361
REMARK INTRA:                  -0.907
REMARK UNBOUND:                -0.923
REMARK SMILES CC[NH+](CC)CCCNc1oc(-c2ccc(OC)c(OC)c2)nc1C#N
REMARK SMILES IDX 8 1 7 2 6 3 3 4 2 6 1 7 4 8 5 9 9 10 10 12 11 13 24 14 12 15
REMARK SMILES IDX 23 16 25 17 26 18 13 19 14 20 22 21 15 22 19 23 16 24 20 25
REMARK SMILES IDX 21 26 17 27 18 28
REMARK H PARENT 3 5 9 11
ROOT
ATOM      1  C   UNL     1      18.561  74.446  21.942  1.00  0.00     0.122 C 
ENDROOT
BRANCH   1   2
ATOM      2  C   UNL     1      17.929  75.683  22.585  1.00  0.00     0.083 C 
BRANCH   2   3
ATOM      3  C   UNL     1      18.974  76.737  22.946  1.00  0.00     0.264 C 
BRANCH   3   4
ATOM      4  N   UNL     1      19.231  76.743  24.452  1.00  0.00    -0.335 N 
ATOM      5  H   UNL     1      18.683  75.978  24.865  1.00  0.00     0.348 HD
BRANCH   4   6
ATOM      6  C   UNL     1      18.754  78.039  25.095  1.00  0.00     0.258 C 
ATOM      7  C   UNL     1      17.593  77.762  26.033  1.00  0.00     0.071 C 
ENDBRANCH   4   6
BRANCH   4   8
ATOM      8  C   UNL     1      20.696  76.471  24.768  1.00  0.00     0.258 C 
ATOM      9  C   UNL     1      21.397  77.762  25.153  1.00  0.00     0.071 C 
ENDBRANCH   4   8
ENDBRANCH   3   4
ENDBRANCH   2   3
ENDBRANCH   1   2
BRANCH   1  10
ATOM     10  N   UNL     1      18.643  73.362  22.907  1.00  0.00    -0.353 N 
ATOM     11  H   UNL     1      17.856  73.311  23.559  1.00  0.00     0.163 HD
BRANCH  10  12
ATOM     12  C   UNL     1      19.340  72.229  22.652  1.00  0.00     0.232 A 
ATOM     13  O   UNL     1      20.378  71.907  23.483  1.00  0.00    -0.419 OA
ATOM     14  C   UNL     1      19.240  71.214  21.724  1.00  0.00     0.204 A 
ATOM     15  C   UNL     1      20.849  70.709  23.003  1.00  0.00     0.230 A 
ATOM     16  N   UNL     1      20.180  70.241  21.969  1.00  0.00    -0.196 NA
ATOM     17  C   UNL     1      18.283  71.103  20.673  1.00  0.00     0.125 C 
ATOM     18  N   UNL     1      17.470  71.060  19.846  1.00  0.00    -0.190 NA
BRANCH  15  19
ATOM     19  C   UNL     1      21.954  70.110  23.740  1.00  0.00     0.041 A 
ATOM     20  C   UNL     1      22.520  68.888  23.359  1.00  0.00     0.018 A 
ATOM     21  C   UNL     1      22.478  70.767  24.858  1.00  0.00     0.064 A 
ATOM     22  C   UNL     1      23.596  68.343  24.074  1.00  0.00     0.051 A 
ATOM     23  C   UNL     1      23.545  70.222  25.584  1.00  0.00     0.161 A 
ATOM     24  C   UNL     1      24.126  69.007  25.186  1.00  0.00     0.160 A 
BRANCH  23  25
ATOM     25  O   UNL     1      23.965  71.010  26.625  1.00  0.00    -0.493 OA
ATOM     26  C   UNL     1      23.097  71.033  27.756  1.00  0.00     0.278 C 
ENDBRANCH  23  25
BRANCH  24  27
ATOM     27  O   UNL     1      25.215  68.567  25.887  1.00  0.00    -0.493 OA
ATOM     28  C   UNL     1      24.994  67.678  26.976  1.00  0.00     0.278 C 
ENDBRANCH  24  27
ENDBRANCH  15  19
ENDBRANCH  10  12
ENDBRANCH   1  10
TORSDOF 10
ENDMDL
MODEL 10
REMARK VINA RESULT:    -6.445      3.720      6.420
REMARK INTER + INTRA:         -11.136
REMARK INTER:                  -9.772
REMARK INTRA:                  -1.365
REMARK UNBOUND:                -0.923
REMARK SMILES CC[NH+](CC)CCCNc1oc(-c2ccc(OC)c(OC)c2)nc1C#N
REMARK SMILES IDX 8 1 7 2 6 3 3 4 2 6 1 7 4 8 5 9 9 10 10 12 11 13 24 14 12 15
REMARK SMILES IDX 23 16 25 17 26 18 13 19 14 20 22 21 15 22 19 23 16 24 20 25
REMARK SMILES IDX 21 26 17 27 18 28
REMARK H PARENT 3 5 9 11
ROOT
ATOM      1  C   UNL     1      18.358  71.578  21.420  1.00  0.00     0.122 C 
ENDROOT
BRANCH   1   2
ATOM      2  C   UNL     1      19.524  72.528  21.706  1.00  0.00     0.083 C 
BRANCH   2   3
ATOM      3  C   UNL     1      19.259  73.407  22.927  1.00  0.00     0.264 C 
BRANCH   3   4
ATOM      4  N   UNL     1      20.530  73.562  23.761  1.00  0.00    -0.335 N 
ATOM      5  H   UNL     1      20.247  73.669  24.744  1.00  0.00     0.348 HD
BRANCH   4   6
ATOM      6  C   UNL     1      21.302  74.818  23.375  1.00  0.00     0.258 C 
ATOM      7  C   UNL     1      22.783  74.507  23.259  1.00  0.00     0.071 C 
ENDBRANCH   4   6
BRANCH   4   8
ATOM      8  C   UNL     1      21.408  72.320  23.676  1.00  0.00     0.258 C 
ATOM      9  C   UNL     1      21.451  71.617  25.021  1.00  0.00     0.071 C 
ENDBRANCH   4   8
ENDBRANCH   3   4
ENDBRANCH   2   3
ENDBRANCH   1   2
BRANCH   1  10
ATOM     10  N   UNL     1      18.605  70.280  22.025  1.00  0.00    -0.353 N 
ATOM     11  H   UNL     1      17.771  69.815  22.391  1.00  0.00     0.163 HD
BRANCH  10  12
ATOM     12  C   UNL     1      19.662  69.513  21.665  1.00  0.00     0.232 A 
ATOM     13  O   UNL     1      20.572  69.173  22.629  1.00  0.00    -0.419 OA
ATOM     14  C   UNL     1      20.068  68.903  20.498  1.00  0.00     0.204 A 
ATOM     15  C   UNL     1      21.482  68.374  21.981  1.00  0.00     0.230 A 
ATOM     16  N   UNL     1      21.206  68.161  20.711  1.00  0.00    -0.196 NA
ATOM     17  C   UNL     1      19.414  68.950  19.232  1.00  0.00     0.125 C 
ATOM     18  N   UNL     1      18.829  69.013  18.232  1.00  0.00    -0.190 NA
BRANCH  15  19
ATOM     19  C   UNL     1      22.561  67.833  22.798  1.00  0.00     0.041 A 
ATOM     20  C   UNL     1      23.075  66.549  22.588  1.00  0.00     0.018 A 
ATOM     21  C   UNL     1      23.110  68.610  23.823  1.00  0.00     0.064 A 
ATOM     22  C   UNL     1      24.126  66.059  23.376  1.00  0.00     0.051 A 
ATOM     23  C   UNL     1      24.152  68.123  24.622  1.00  0.00     0.161 A 
ATOM     24  C   UNL     1      24.682  66.844  24.394  1.00  0.00     0.160 A 
BRANCH  23  25
ATOM     25  O   UNL     1      24.603  69.025  25.552  1.00  0.00    -0.493 OA
ATOM     26  C   UNL     1      23.806  69.132  26.729  1.00  0.00     0.278 C 
ENDBRANCH  23  25
BRANCH  24  27
ATOM     27  O   UNL     1      25.751  66.456  25.155  1.00  0.00    -0.493 OA
ATOM     28  C   UNL     1      25.779  65.116  25.632  1.00  0.00     0.278 C 
ENDBRANCH  24  27
ENDBRANCH  15  19
ENDBRANCH  10  12
ENDBRANCH   1  10
TORSDOF 10
ENDMDL
