MODEL 1
REMARK VINA RESULT:    -9.068      0.000      0.000
REMARK INTER + INTRA:         -11.775
REMARK INTER:                 -11.188
REMARK INTRA:                  -0.587
REMARK UNBOUND:                -0.587
REMARK SMILES O=C(Nc1ccc(F)c(F)c1)c1ccc(F)c(S(=O)(=O)N2CCOCC2)c1
REMARK SMILES IDX 12 1 13 2 14 3 15 4 16 5 17 6 27 7 2 8 1 9 3 10 4 12 5 13
REMARK SMILES IDX 11 14 6 15 9 16 7 17 10 18 8 19 18 20 19 21 20 22 21 23
REMARK SMILES IDX 22 24 26 25 23 26 25 27 24 28
REMARK H PARENT 3 11
ROOT
ATOM      1  C   UNL     1      22.229  74.354  23.782  1.00  0.00     0.041 A 
ATOM      2  C   UNL     1      23.493  74.720  23.298  1.00  0.00     0.017 A 
ATOM      3  C   UNL     1      23.847  76.070  23.228  1.00  0.00     0.041 A 
ATOM      4  C   UNL     1      22.943  77.049  23.634  1.00  0.00     0.143 A 
ATOM      5  F   UNL     1      23.311  78.332  23.540  1.00  0.00    -0.206 F 
ATOM      6  C   UNL     1      21.684  76.688  24.100  1.00  0.00     0.119 A 
ATOM      7  C   UNL     1      21.316  75.341  24.177  1.00  0.00     0.038 A 
ENDROOT
BRANCH   1   8
ATOM      8  C   UNL     1      21.804  72.928  23.845  1.00  0.00     0.255 C 
ATOM      9  O   UNL     1      21.217  72.552  24.852  1.00  0.00    -0.269 OA
ATOM     10  N   UNL     1      22.155  72.167  22.747  1.00  0.00    -0.322 N 
ATOM     11  H   UNL     1      22.748  72.605  22.052  1.00  0.00     0.170 HD
BRANCH  10  12
ATOM     12  C   UNL     1      21.853  70.806  22.522  1.00  0.00     0.044 A 
ATOM     13  C   UNL     1      20.794  70.363  21.721  1.00  0.00     0.029 A 
ATOM     14  C   UNL     1      22.679  69.858  23.139  1.00  0.00     0.068 A 
ATOM     15  C   UNL     1      20.560  68.994  21.540  1.00  0.00     0.044 A 
ATOM     16  C   UNL     1      22.440  68.498  22.955  1.00  0.00     0.160 A 
ATOM     17  C   UNL     1      21.387  68.067  22.161  1.00  0.00     0.158 A 
ATOM     18  F   UNL     1      23.242  67.607  23.554  1.00  0.00    -0.204 F 
ATOM     19  F   UNL     1      21.161  66.759  21.986  1.00  0.00    -0.204 F 
ENDBRANCH  10  12
ENDBRANCH   1   8
BRANCH   6  20
ATOM     20  S   UNL     1      20.571  77.950  24.616  1.00  0.00     0.246 S 
ATOM     21  O   UNL     1      20.603  78.997  23.618  1.00  0.00    -0.207 OA
ATOM     22  O   UNL     1      20.840  78.248  26.008  1.00  0.00    -0.207 OA
BRANCH  20  23
ATOM     23  N   UNL     1      19.055  77.179  24.564  1.00  0.00    -0.193 NA
ATOM     24  C   UNL     1      18.061  77.602  25.603  1.00  0.00     0.131 C 
ATOM     25  C   UNL     1      18.458  77.148  23.188  1.00  0.00     0.131 C 
ATOM     26  C   UNL     1      16.958  78.469  24.990  1.00  0.00     0.177 C 
ATOM     27  C   UNL     1      16.968  76.806  23.262  1.00  0.00     0.177 C 
ATOM     28  O   UNL     1      16.200  77.779  23.986  1.00  0.00    -0.379 OA
ENDBRANCH  20  23
ENDBRANCH   6  20
TORSDOF 4
ENDMDL
MODEL 2
REMARK VINA RESULT:    -8.783      2.231      3.132
REMARK INTER + INTRA:         -11.424
REMARK INTER:                 -11.287
REMARK INTRA:                  -0.138
REMARK UNBOUND:                -0.587
REMARK SMILES O=C(Nc1ccc(F)c(F)c1)c1ccc(F)c(S(=O)(=O)N2CCOCC2)c1
REMARK SMILES IDX 12 1 13 2 14 3 15 4 16 5 17 6 27 7 2 8 1 9 3 10 4 12 5 13
REMARK SMILES IDX 11 14 6 15 9 16 7 17 10 18 8 19 18 20 19 21 20 22 21 23
REMARK SMILES IDX 22 24 26 25 23 26 25 27 24 28
REMARK H PARENT 3 11
ROOT
ATOM      1  C   UNL     1      21.472  72.936  24.280  1.00  0.00     0.041 A 
ATOM      2  C   UNL     1      20.642  72.597  23.202  1.00  0.00     0.017 A 
ATOM      3  C   UNL     1      19.909  73.592  22.550  1.00  0.00     0.041 A 
ATOM      4  C   UNL     1      20.000  74.916  22.974  1.00  0.00     0.143 A 
ATOM      5  F   UNL     1      19.272  75.840  22.335  1.00  0.00    -0.206 F 
ATOM      6  C   UNL     1      20.811  75.250  24.052  1.00  0.00     0.119 A 
ATOM      7  C   UNL     1      21.552  74.266  24.714  1.00  0.00     0.038 A 
ENDROOT
BRANCH   1   8
ATOM      8  C   UNL     1      22.248  71.901  25.018  1.00  0.00     0.255 C 
ATOM      9  O   UNL     1      22.386  72.046  26.226  1.00  0.00    -0.269 OA
ATOM     10  N   UNL     1      22.760  70.886  24.232  1.00  0.00    -0.322 N 
ATOM     11  H   UNL     1      22.656  70.982  23.229  1.00  0.00     0.170 HD
BRANCH  10  12
ATOM     12  C   UNL     1      23.497  69.763  24.666  1.00  0.00     0.044 A 
ATOM     13  C   UNL     1      24.404  69.788  25.732  1.00  0.00     0.029 A 
ATOM     14  C   UNL     1      23.290  68.559  23.981  1.00  0.00     0.068 A 
ATOM     15  C   UNL     1      25.096  68.629  26.108  1.00  0.00     0.044 A 
ATOM     16  C   UNL     1      23.981  67.411  24.360  1.00  0.00     0.160 A 
ATOM     17  C   UNL     1      24.880  67.445  25.417  1.00  0.00     0.158 A 
ATOM     18  F   UNL     1      23.768  66.269  23.691  1.00  0.00    -0.204 F 
ATOM     19  F   UNL     1      25.542  66.339  25.778  1.00  0.00    -0.204 F 
ENDBRANCH  10  12
ENDBRANCH   1   8
BRANCH   6  20
ATOM     20  S   UNL     1      20.912  76.934  24.555  1.00  0.00     0.246 S 
ATOM     21  O   UNL     1      21.426  77.694  23.437  1.00  0.00    -0.207 OA
ATOM     22  O   UNL     1      21.569  76.982  25.846  1.00  0.00    -0.207 OA
BRANCH  20  23
ATOM     23  N   UNL     1      19.286  77.362  24.816  1.00  0.00    -0.193 NA
ATOM     24  C   UNL     1      18.924  77.765  26.214  1.00  0.00     0.131 C 
ATOM     25  C   UNL     1      18.760  78.325  23.795  1.00  0.00     0.131 C 
ATOM     26  C   UNL     1      18.699  79.277  26.311  1.00  0.00     0.177 C 
ATOM     27  C   UNL     1      17.456  78.961  24.284  1.00  0.00     0.177 C 
ATOM     28  O   UNL     1      17.621  79.734  25.482  1.00  0.00    -0.379 OA
ENDBRANCH  20  23
ENDBRANCH   6  20
TORSDOF 4
ENDMDL
MODEL 3
REMARK VINA RESULT:    -8.671      3.675      8.120
REMARK INTER + INTRA:         -11.285
REMARK INTER:                 -10.563
REMARK INTRA:                  -0.723
REMARK UNBOUND:                -0.587
REMARK SMILES O=C(Nc1ccc(F)c(F)c1)c1ccc(F)c(S(=O)(=O)N2CCOCC2)c1
REMARK SMILES IDX 12 1 13 2 14 3 15 4 16 5 17 6 27 7 2 8 1 9 3 10 4 12 5 13
REMARK SMILES IDX 11 14 6 15 9 16 7 17 10 18 8 19 18 20 19 21 20 22 21 23
REMARK SMILES IDX 22 24 26 25 23 26 25 27 24 28
REMARK H PARENT 3 11
ROOT
ATOM      1  C   UNL     1      22.567  71.044  24.049  1.00  0.00     0.041 A 
ATOM      2  C   UNL     1      23.221  70.080  24.830  1.00  0.00     0.017 A 
ATOM      3  C   UNL     1      23.214  68.741  24.430  1.00  0.00     0.041 A 
ATOM      4  C   UNL     1      22.555  68.366  23.261  1.00  0.00     0.143 A 
ATOM      5  F   UNL     1      22.557  67.072  22.918  1.00  0.00    -0.206 F 
ATOM      6  C   UNL     1      21.894  69.318  22.495  1.00  0.00     0.119 A 
ATOM      7  C   UNL     1      21.893  70.663  22.881  1.00  0.00     0.038 A 
ENDROOT
BRANCH   1   8
ATOM      8  C   UNL     1      22.528  72.476  24.455  1.00  0.00     0.255 C 
ATOM      9  O   UNL     1      22.316  72.729  25.633  1.00  0.00    -0.269 OA
ATOM     10  N   UNL     1      22.710  73.379  23.424  1.00  0.00    -0.322 N 
ATOM     11  H   UNL     1      22.751  73.004  22.484  1.00  0.00     0.170 HD
BRANCH  10  12
ATOM     12  C   UNL     1      22.756  74.786  23.523  1.00  0.00     0.044 A 
ATOM     13  C   UNL     1      23.860  75.560  23.147  1.00  0.00     0.029 A 
ATOM     14  C   UNL     1      21.616  75.430  24.021  1.00  0.00     0.068 A 
ATOM     15  C   UNL     1      23.830  76.955  23.270  1.00  0.00     0.044 A 
ATOM     16  C   UNL     1      21.593  76.818  24.140  1.00  0.00     0.160 A 
ATOM     17  C   UNL     1      22.693  77.577  23.767  1.00  0.00     0.158 A 
ATOM     18  F   UNL     1      20.492  77.414  24.619  1.00  0.00    -0.204 F 
ATOM     19  F   UNL     1      22.665  78.911  23.882  1.00  0.00    -0.204 F 
ENDBRANCH  10  12
ENDBRANCH   1   8
BRANCH   6  20
ATOM     20  S   UNL     1      21.081  68.811  21.018  1.00  0.00     0.246 S 
ATOM     21  O   UNL     1      20.097  67.816  21.381  1.00  0.00    -0.207 OA
ATOM     22  O   UNL     1      22.094  68.521  20.023  1.00  0.00    -0.207 OA
BRANCH  20  23
ATOM     23  N   UNL     1      20.282  70.223  20.508  1.00  0.00    -0.193 NA
ATOM     24  C   UNL     1      20.481  70.616  19.075  1.00  0.00     0.131 C 
ATOM     25  C   UNL     1      18.838  70.260  20.910  1.00  0.00     0.131 C 
ATOM     26  C   UNL     1      19.223  70.338  18.248  1.00  0.00     0.177 C 
ATOM     27  C   UNL     1      18.090  71.332  20.114  1.00  0.00     0.177 C 
ATOM     28  O   UNL     1      18.083  71.083  18.700  1.00  0.00    -0.379 OA
ENDBRANCH  20  23
ENDBRANCH   6  20
TORSDOF 4
ENDMDL
MODEL 4
REMARK VINA RESULT:    -8.271      2.774      3.756
REMARK INTER + INTRA:         -10.792
REMARK INTER:                 -10.174
REMARK INTRA:                  -0.618
REMARK UNBOUND:                -0.587
REMARK SMILES O=C(Nc1ccc(F)c(F)c1)c1ccc(F)c(S(=O)(=O)N2CCOCC2)c1
REMARK SMILES IDX 12 1 13 2 14 3 15 4 16 5 17 6 27 7 2 8 1 9 3 10 4 12 5 13
REMARK SMILES IDX 11 14 6 15 9 16 7 17 10 18 8 19 18 20 19 21 20 22 21 23
REMARK SMILES IDX 22 24 26 25 23 26 25 27 24 28
REMARK H PARENT 3 11
ROOT
ATOM      1  C   UNL     1      20.025  73.386  22.820  1.00  0.00     0.041 A 
ATOM      2  C   UNL     1      18.905  72.602  22.504  1.00  0.00     0.017 A 
ATOM      3  C   UNL     1      17.688  73.219  22.203  1.00  0.00     0.041 A 
ATOM      4  C   UNL     1      17.587  74.609  22.223  1.00  0.00     0.143 A 
ATOM      5  F   UNL     1      16.402  75.164  21.944  1.00  0.00    -0.206 F 
ATOM      6  C   UNL     1      18.692  75.385  22.551  1.00  0.00     0.119 A 
ATOM      7  C   UNL     1      19.918  74.782  22.853  1.00  0.00     0.038 A 
ENDROOT
BRANCH   1   8
ATOM      8  C   UNL     1      21.332  72.766  23.174  1.00  0.00     0.255 C 
ATOM      9  O   UNL     1      22.348  73.296  22.745  1.00  0.00    -0.269 OA
ATOM     10  N   UNL     1      21.244  71.618  23.939  1.00  0.00    -0.322 N 
ATOM     11  H   UNL     1      20.317  71.244  24.105  1.00  0.00     0.170 HD
BRANCH  10  12
ATOM     12  C   UNL     1      22.313  70.849  24.445  1.00  0.00     0.044 A 
ATOM     13  C   UNL     1      23.245  71.323  25.376  1.00  0.00     0.029 A 
ATOM     14  C   UNL     1      22.427  69.530  23.985  1.00  0.00     0.068 A 
ATOM     15  C   UNL     1      24.278  70.497  25.837  1.00  0.00     0.044 A 
ATOM     16  C   UNL     1      23.456  68.715  24.448  1.00  0.00     0.160 A 
ATOM     17  C   UNL     1      24.377  69.194  25.369  1.00  0.00     0.158 A 
ATOM     18  F   UNL     1      23.547  67.457  23.995  1.00  0.00    -0.204 F 
ATOM     19  F   UNL     1      25.365  68.406  25.812  1.00  0.00    -0.204 F 
ENDBRANCH  10  12
ENDBRANCH   1   8
BRANCH   6  20
ATOM     20  S   UNL     1      18.533  77.138  22.556  1.00  0.00     0.246 S 
ATOM     21  O   UNL     1      18.056  77.537  21.250  1.00  0.00    -0.207 OA
ATOM     22  O   UNL     1      19.751  77.701  23.101  1.00  0.00    -0.207 OA
BRANCH  20  23
ATOM     23  N   UNL     1      17.308  77.416  23.703  1.00  0.00    -0.193 NA
ATOM     24  C   UNL     1      17.755  77.565  25.126  1.00  0.00     0.131 C 
ATOM     25  C   UNL     1      16.353  78.497  23.293  1.00  0.00     0.131 C 
ATOM     26  C   UNL     1      17.666  79.024  25.581  1.00  0.00     0.177 C 
ATOM     27  C   UNL     1      15.528  78.964  24.496  1.00  0.00     0.177 C 
ATOM     28  O   UNL     1      16.329  79.542  25.537  1.00  0.00    -0.379 OA
ENDBRANCH  20  23
ENDBRANCH   6  20
TORSDOF 4
ENDMDL
MODEL 5
REMARK VINA RESULT:    -8.242      3.685      8.677
REMARK INTER + INTRA:         -10.756
REMARK INTER:                 -10.296
REMARK INTRA:                  -0.460
REMARK UNBOUND:                -0.587
REMARK SMILES O=C(Nc1ccc(F)c(F)c1)c1ccc(F)c(S(=O)(=O)N2CCOCC2)c1
REMARK SMILES IDX 12 1 13 2 14 3 15 4 16 5 17 6 27 7 2 8 1 9 3 10 4 12 5 13
REMARK SMILES IDX 11 14 6 15 9 16 7 17 10 18 8 19 18 20 19 21 20 22 21 23
REMARK SMILES IDX 22 24 26 25 23 26 25 27 24 28
REMARK H PARENT 3 11
ROOT
ATOM      1  C   UNL     1      22.020  71.122  23.452  1.00  0.00     0.041 A 
ATOM      2  C   UNL     1      22.495  69.944  24.046  1.00  0.00     0.017 A 
ATOM      3  C   UNL     1      22.120  68.703  23.524  1.00  0.00     0.041 A 
ATOM      4  C   UNL     1      21.274  68.638  22.419  1.00  0.00     0.143 A 
ATOM      5  F   UNL     1      20.925  67.432  21.955  1.00  0.00    -0.206 F 
ATOM      6  C   UNL     1      20.791  69.805  21.840  1.00  0.00     0.119 A 
ATOM      7  C   UNL     1      21.158  71.055  22.350  1.00  0.00     0.038 A 
ENDROOT
BRANCH   1   8
ATOM      8  C   UNL     1      22.374  72.463  23.995  1.00  0.00     0.255 C 
ATOM      9  O   UNL     1      22.629  72.544  25.189  1.00  0.00    -0.269 OA
ATOM     10  N   UNL     1      22.343  73.491  23.073  1.00  0.00    -0.322 N 
ATOM     11  H   UNL     1      21.991  73.272  22.148  1.00  0.00     0.170 HD
BRANCH  10  12
ATOM     12  C   UNL     1      22.665  74.847  23.298  1.00  0.00     0.044 A 
ATOM     13  C   UNL     1      23.908  75.416  22.996  1.00  0.00     0.029 A 
ATOM     14  C   UNL     1      21.665  75.659  23.850  1.00  0.00     0.068 A 
ATOM     15  C   UNL     1      24.152  76.773  23.244  1.00  0.00     0.044 A 
ATOM     16  C   UNL     1      21.915  77.007  24.093  1.00  0.00     0.160 A 
ATOM     17  C   UNL     1      23.150  77.562  23.793  1.00  0.00     0.158 A 
ATOM     18  F   UNL     1      20.944  77.766  24.621  1.00  0.00    -0.204 F 
ATOM     19  F   UNL     1      23.386  78.859  24.028  1.00  0.00    -0.204 F 
ENDBRANCH  10  12
ENDBRANCH   1   8
BRANCH   6  20
ATOM     20  S   UNL     1      19.732  69.687  20.438  1.00  0.00     0.246 S 
ATOM     21  O   UNL     1      18.952  70.903  20.376  1.00  0.00    -0.207 OA
ATOM     22  O   UNL     1      19.082  68.393  20.471  1.00  0.00    -0.207 OA
BRANCH  20  23
ATOM     23  N   UNL     1      20.819  69.657  19.129  1.00  0.00    -0.193 NA
ATOM     24  C   UNL     1      21.313  68.306  18.710  1.00  0.00     0.131 C 
ATOM     25  C   UNL     1      20.357  70.479  17.963  1.00  0.00     0.131 C 
ATOM     26  C   UNL     1      20.668  67.868  17.392  1.00  0.00     0.177 C 
ATOM     27  C   UNL     1      21.152  70.114  16.706  1.00  0.00     0.177 C 
ATOM     28  O   UNL     1      20.972  68.749  16.302  1.00  0.00    -0.379 OA
ENDBRANCH  20  23
ENDBRANCH   6  20
TORSDOF 4
ENDMDL
MODEL 6
REMARK VINA RESULT:    -8.192      3.434      8.157
REMARK INTER + INTRA:         -10.694
REMARK INTER:                  -9.979
REMARK INTRA:                  -0.715
REMARK UNBOUND:                -0.587
REMARK SMILES O=C(Nc1ccc(F)c(F)c1)c1ccc(F)c(S(=O)(=O)N2CCOCC2)c1
REMARK SMILES IDX 12 1 13 2 14 3 15 4 16 5 17 6 27 7 2 8 1 9 3 10 4 12 5 13
REMARK SMILES IDX 11 14 6 15 9 16 7 17 10 18 8 19 18 20 19 21 20 22 21 23
REMARK SMILES IDX 22 24 26 25 23 26 25 27 24 28
REMARK H PARENT 3 11
ROOT
ATOM      1  C   UNL     1      22.418  72.611  24.063  1.00  0.00     0.041 A 
ATOM      2  C   UNL     1      23.000  72.003  25.185  1.00  0.00     0.017 A 
ATOM      3  C   UNL     1      23.129  70.613  25.234  1.00  0.00     0.041 A 
ATOM      4  C   UNL     1      22.675  69.833  24.172  1.00  0.00     0.143 A 
ATOM      5  F   UNL     1      22.801  68.503  24.260  1.00  0.00    -0.206 F 
ATOM      6  C   UNL     1      22.084  70.433  23.067  1.00  0.00     0.119 A 
ATOM      7  C   UNL     1      21.949  71.824  23.003  1.00  0.00     0.038 A 
ENDROOT
BRANCH   1   8
ATOM      8  C   UNL     1      22.238  74.087  23.985  1.00  0.00     0.255 C 
ATOM      9  O   UNL     1      23.190  74.758  23.610  1.00  0.00    -0.269 OA
ATOM     10  N   UNL     1      20.995  74.543  24.383  1.00  0.00    -0.322 N 
ATOM     11  H   UNL     1      20.360  73.863  24.783  1.00  0.00     0.170 HD
BRANCH  10  12
ATOM     12  C   UNL     1      20.537  75.878  24.379  1.00  0.00     0.044 A 
ATOM     13  C   UNL     1      20.978  76.859  25.276  1.00  0.00     0.029 A 
ATOM     14  C   UNL     1      19.591  76.227  23.406  1.00  0.00     0.068 A 
ATOM     15  C   UNL     1      20.481  78.166  25.206  1.00  0.00     0.044 A 
ATOM     16  C   UNL     1      19.101  77.529  23.342  1.00  0.00     0.160 A 
ATOM     17  C   UNL     1      19.542  78.493  24.237  1.00  0.00     0.158 A 
ATOM     18  F   UNL     1      18.197  77.842  22.404  1.00  0.00    -0.204 F 
ATOM     19  F   UNL     1      19.068  79.745  24.172  1.00  0.00    -0.204 F 
ENDBRANCH  10  12
ENDBRANCH   1   8
BRANCH   6  20
ATOM     20  S   UNL     1      21.531  69.419  21.739  1.00  0.00     0.246 S 
ATOM     21  O   UNL     1      20.746  68.345  22.306  1.00  0.00    -0.207 OA
ATOM     22  O   UNL     1      22.668  69.133  20.886  1.00  0.00    -0.207 OA
BRANCH  20  23
ATOM     23  N   UNL     1      20.505  70.452  20.859  1.00  0.00    -0.193 NA
ATOM     24  C   UNL     1      20.656  70.421  19.367  1.00  0.00     0.131 C 
ATOM     25  C   UNL     1      19.071  70.360  21.286  1.00  0.00     0.131 C 
ATOM     26  C   UNL     1      19.478  69.696  18.710  1.00  0.00     0.177 C 
ATOM     27  C   UNL     1      18.160  70.997  20.233  1.00  0.00     0.177 C 
ATOM     28  O   UNL     1      18.219  70.336  18.961  1.00  0.00    -0.379 OA
ENDBRANCH  20  23
ENDBRANCH   6  20
TORSDOF 4
ENDMDL
MODEL 7
REMARK VINA RESULT:    -8.126      4.148      5.409
REMARK INTER + INTRA:         -10.613
REMARK INTER:                 -10.029
REMARK INTRA:                  -0.584
REMARK UNBOUND:                -0.587
REMARK SMILES O=C(Nc1ccc(F)c(F)c1)c1ccc(F)c(S(=O)(=O)N2CCOCC2)c1
REMARK SMILES IDX 12 1 13 2 14 3 15 4 16 5 17 6 27 7 2 8 1 9 3 10 4 12 5 13
REMARK SMILES IDX 11 14 6 15 9 16 7 17 10 18 8 19 18 20 19 21 20 22 21 23
REMARK SMILES IDX 22 24 26 25 23 26 25 27 24 28
REMARK H PARENT 3 11
ROOT
ATOM      1  C   UNL     1      21.223  71.116  23.435  1.00  0.00     0.041 A 
ATOM      2  C   UNL     1      21.936  72.281  23.754  1.00  0.00     0.017 A 
ATOM      3  C   UNL     1      21.378  73.533  23.482  1.00  0.00     0.041 A 
ATOM      4  C   UNL     1      20.120  73.622  22.891  1.00  0.00     0.143 A 
ATOM      5  F   UNL     1      19.624  74.838  22.632  1.00  0.00    -0.206 F 
ATOM      6  C   UNL     1      19.420  72.468  22.560  1.00  0.00     0.119 A 
ATOM      7  C   UNL     1      19.964  71.208  22.828  1.00  0.00     0.038 A 
ENDROOT
BRANCH   1   8
ATOM      8  C   UNL     1      21.794  69.764  23.683  1.00  0.00     0.255 C 
ATOM      9  O   UNL     1      21.115  68.793  23.374  1.00  0.00    -0.269 OA
ATOM     10  N   UNL     1      23.042  69.759  24.275  1.00  0.00    -0.322 N 
ATOM     11  H   UNL     1      23.413  70.651  24.579  1.00  0.00     0.170 HD
BRANCH  10  12
ATOM     12  C   UNL     1      23.831  68.631  24.590  1.00  0.00     0.044 A 
ATOM     13  C   UNL     1      24.198  67.650  23.661  1.00  0.00     0.029 A 
ATOM     14  C   UNL     1      24.270  68.508  25.915  1.00  0.00     0.068 A 
ATOM     15  C   UNL     1      24.989  66.560  24.048  1.00  0.00     0.044 A 
ATOM     16  C   UNL     1      25.056  67.422  26.292  1.00  0.00     0.160 A 
ATOM     17  C   UNL     1      25.414  66.453  25.366  1.00  0.00     0.158 A 
ATOM     18  F   UNL     1      25.466  67.322  27.565  1.00  0.00    -0.204 F 
ATOM     19  F   UNL     1      26.170  65.410  25.733  1.00  0.00    -0.204 F 
ENDBRANCH  10  12
ENDBRANCH   1   8
BRANCH   6  20
ATOM     20  S   UNL     1      17.827  72.618  21.825  1.00  0.00     0.246 S 
ATOM     21  O   UNL     1      17.049  73.518  22.646  1.00  0.00    -0.207 OA
ATOM     22  O   UNL     1      17.342  71.285  21.525  1.00  0.00    -0.207 OA
BRANCH  20  23
ATOM     23  N   UNL     1      18.154  73.368  20.334  1.00  0.00    -0.193 NA
ATOM     24  C   UNL     1      18.079  72.491  19.120  1.00  0.00     0.131 C 
ATOM     25  C   UNL     1      17.410  74.657  20.149  1.00  0.00     0.131 C 
ATOM     26  C   UNL     1      16.821  72.791  18.301  1.00  0.00     0.177 C 
ATOM     27  C   UNL     1      17.434  75.079  18.677  1.00  0.00     0.177 C 
ATOM     28  O   UNL     1      16.784  74.138  17.810  1.00  0.00    -0.379 OA
ENDBRANCH  20  23
ENDBRANCH   6  20
TORSDOF 4
ENDMDL
MODEL 8
REMARK VINA RESULT:    -8.041      2.345      3.279
REMARK INTER + INTRA:         -10.508
REMARK INTER:                  -9.888
REMARK INTRA:                  -0.620
REMARK UNBOUND:                -0.587
REMARK SMILES O=C(Nc1ccc(F)c(F)c1)c1ccc(F)c(S(=O)(=O)N2CCOCC2)c1
REMARK SMILES IDX 12 1 13 2 14 3 15 4 16 5 17 6 27 7 2 8 1 9 3 10 4 12 5 13
REMARK SMILES IDX 11 14 6 15 9 16 7 17 10 18 8 19 18 20 19 21 20 22 21 23
REMARK SMILES IDX 22 24 26 25 23 26 25 27 24 28
REMARK H PARENT 3 11
ROOT
ATOM      1  C   UNL     1      21.451  75.793  23.879  1.00  0.00     0.041 A 
ATOM      2  C   UNL     1      22.132  76.954  24.275  1.00  0.00     0.017 A 
ATOM      3  C   UNL     1      21.419  78.134  24.500  1.00  0.00     0.041 A 
ATOM      4  C   UNL     1      20.037  78.159  24.326  1.00  0.00     0.143 A 
ATOM      5  F   UNL     1      19.390  79.312  24.536  1.00  0.00    -0.206 F 
ATOM      6  C   UNL     1      19.364  77.014  23.919  1.00  0.00     0.119 A 
ATOM      7  C   UNL     1      20.063  75.823  23.691  1.00  0.00     0.038 A 
ENDROOT
BRANCH   1   8
ATOM      8  C   UNL     1      22.176  74.523  23.602  1.00  0.00     0.255 C 
ATOM      9  O   UNL     1      23.104  74.558  22.804  1.00  0.00    -0.269 OA
ATOM     10  N   UNL     1      21.689  73.416  24.272  1.00  0.00    -0.322 N 
ATOM     11  H   UNL     1      20.835  73.537  24.803  1.00  0.00     0.170 HD
BRANCH  10  12
ATOM     12  C   UNL     1      22.201  72.101  24.228  1.00  0.00     0.044 A 
ATOM     13  C   UNL     1      21.952  71.200  23.186  1.00  0.00     0.029 A 
ATOM     14  C   UNL     1      23.010  71.694  25.297  1.00  0.00     0.068 A 
ATOM     15  C   UNL     1      22.500  69.911  23.210  1.00  0.00     0.044 A 
ATOM     16  C   UNL     1      23.551  70.411  25.314  1.00  0.00     0.160 A 
ATOM     17  C   UNL     1      23.298  69.524  24.278  1.00  0.00     0.158 A 
ATOM     18  F   UNL     1      24.323  70.041  26.346  1.00  0.00    -0.204 F 
ATOM     19  F   UNL     1      23.821  68.291  24.298  1.00  0.00    -0.204 F 
ENDBRANCH  10  12
ENDBRANCH   1   8
BRANCH   6  20
ATOM     20  S   UNL     1      17.616  77.077  23.720  1.00  0.00     0.246 S 
ATOM     21  O   UNL     1      17.041  77.400  25.006  1.00  0.00    -0.207 OA
ATOM     22  O   UNL     1      17.201  75.889  23.001  1.00  0.00    -0.207 OA
BRANCH  20  23
ATOM     23  N   UNL     1      17.390  78.392  22.664  1.00  0.00    -0.193 NA
ATOM     24  C   UNL     1      17.130  78.051  21.228  1.00  0.00     0.131 C 
ATOM     25  C   UNL     1      16.421  79.408  23.190  1.00  0.00     0.131 C 
ATOM     26  C   UNL     1      15.663  78.293  20.861  1.00  0.00     0.177 C 
ATOM     27  C   UNL     1      15.969  80.344  22.066  1.00  0.00     0.177 C 
ATOM     28  O   UNL     1      15.269  79.664  21.013  1.00  0.00    -0.379 OA
ENDBRANCH  20  23
ENDBRANCH   6  20
TORSDOF 4
ENDMDL
MODEL 9
REMARK VINA RESULT:    -7.989      4.960      6.526
REMARK INTER + INTRA:         -10.444
REMARK INTER:                 -10.164
REMARK INTRA:                  -0.280
REMARK UNBOUND:                -0.587
REMARK SMILES O=C(Nc1ccc(F)c(F)c1)c1ccc(F)c(S(=O)(=O)N2CCOCC2)c1
REMARK SMILES IDX 12 1 13 2 14 3 15 4 16 5 17 6 27 7 2 8 1 9 3 10 4 12 5 13
REMARK SMILES IDX 11 14 6 15 9 16 7 17 10 18 8 19 18 20 19 21 20 22 21 23
REMARK SMILES IDX 22 24 26 25 23 26 25 27 24 28
REMARK H PARENT 3 11
ROOT
ATOM      1  C   UNL     1      21.946  71.117  23.920  1.00  0.00     0.041 A 
ATOM      2  C   UNL     1      21.823  72.475  24.248  1.00  0.00     0.017 A 
ATOM      3  C   UNL     1      20.832  73.249  23.639  1.00  0.00     0.041 A 
ATOM      4  C   UNL     1      19.972  72.674  22.706  1.00  0.00     0.143 A 
ATOM      5  F   UNL     1      19.045  73.450  22.132  1.00  0.00    -0.206 F 
ATOM      6  C   UNL     1      20.104  71.332  22.369  1.00  0.00     0.119 A 
ATOM      7  C   UNL     1      21.090  70.544  22.970  1.00  0.00     0.038 A 
ENDROOT
BRANCH   1   8
ATOM      8  C   UNL     1      23.007  70.265  24.525  1.00  0.00     0.255 C 
ATOM      9  O   UNL     1      23.769  70.788  25.327  1.00  0.00    -0.269 OA
ATOM     10  N   UNL     1      23.027  68.957  24.079  1.00  0.00    -0.322 N 
ATOM     11  H   UNL     1      22.401  68.718  23.320  1.00  0.00     0.170 HD
BRANCH  10  12
ATOM     12  C   UNL     1      23.893  67.926  24.504  1.00  0.00     0.044 A 
ATOM     13  C   UNL     1      24.271  66.842  23.702  1.00  0.00     0.029 A 
ATOM     14  C   UNL     1      24.403  68.015  25.806  1.00  0.00     0.068 A 
ATOM     15  C   UNL     1      25.140  65.860  24.193  1.00  0.00     0.044 A 
ATOM     16  C   UNL     1      25.267  67.034  26.287  1.00  0.00     0.160 A 
ATOM     17  C   UNL     1      25.634  65.962  25.486  1.00  0.00     0.158 A 
ATOM     18  F   UNL     1      25.743  67.138  27.536  1.00  0.00    -0.204 F 
ATOM     19  F   UNL     1      26.465  65.022  25.952  1.00  0.00    -0.204 F 
ENDBRANCH  10  12
ENDBRANCH   1   8
BRANCH   6  20
ATOM     20  S   UNL     1      18.994  70.635  21.194  1.00  0.00     0.246 S 
ATOM     21  O   UNL     1      17.652  71.004  21.586  1.00  0.00    -0.207 OA
ATOM     22  O   UNL     1      19.352  69.243  21.005  1.00  0.00    -0.207 OA
BRANCH  20  23
ATOM     23  N   UNL     1      19.393  71.443  19.751  1.00  0.00    -0.193 NA
ATOM     24  C   UNL     1      20.196  70.662  18.754  1.00  0.00     0.131 C 
ATOM     25  C   UNL     1      18.221  72.132  19.120  1.00  0.00     0.131 C 
ATOM     26  C   UNL     1      19.333  70.242  17.561  1.00  0.00     0.177 C 
ATOM     27  C   UNL     1      18.539  72.502  17.668  1.00  0.00     0.177 C 
ATOM     28  O   UNL     1      18.797  71.359  16.839  1.00  0.00    -0.379 OA
ENDBRANCH  20  23
ENDBRANCH   6  20
TORSDOF 4
ENDMDL
MODEL 10
REMARK VINA RESULT:    -7.985      4.773      6.487
REMARK INTER + INTRA:         -10.439
REMARK INTER:                  -9.995
REMARK INTRA:                  -0.444
REMARK UNBOUND:                -0.587
REMARK SMILES O=C(Nc1ccc(F)c(F)c1)c1ccc(F)c(S(=O)(=O)N2CCOCC2)c1
REMARK SMILES IDX 12 1 13 2 14 3 15 4 16 5 17 6 27 7 2 8 1 9 3 10 4 12 5 13
REMARK SMILES IDX 11 14 6 15 9 16 7 17 10 18 8 19 18 20 19 21 20 22 21 23
REMARK SMILES IDX 22 24 26 25 23 26 25 27 24 28
REMARK H PARENT 3 11
ROOT
ATOM      1  C   UNL     1      21.929  71.253  24.031  1.00  0.00     0.041 A 
ATOM      2  C   UNL     1      21.786  72.616  24.328  1.00  0.00     0.017 A 
ATOM      3  C   UNL     1      20.812  73.372  23.671  1.00  0.00     0.041 A 
ATOM      4  C   UNL     1      19.990  72.774  22.719  1.00  0.00     0.143 A 
ATOM      5  F   UNL     1      19.078  73.533  22.099  1.00  0.00    -0.206 F 
ATOM      6  C   UNL     1      20.141  71.427  22.413  1.00  0.00     0.119 A 
ATOM      7  C   UNL     1      21.110  70.656  23.064  1.00  0.00     0.038 A 
ENDROOT
BRANCH   1   8
ATOM      8  C   UNL     1      22.973  70.420  24.689  1.00  0.00     0.255 C 
ATOM      9  O   UNL     1      23.678  70.953  25.536  1.00  0.00    -0.269 OA
ATOM     10  N   UNL     1      23.047  69.116  24.237  1.00  0.00    -0.322 N 
ATOM     11  H   UNL     1      22.470  68.869  23.443  1.00  0.00     0.170 HD
BRANCH  10  12
ATOM     12  C   UNL     1      23.911  68.101  24.703  1.00  0.00     0.044 A 
ATOM     13  C   UNL     1      24.415  68.042  26.008  1.00  0.00     0.029 A 
ATOM     14  C   UNL     1      24.267  67.097  23.794  1.00  0.00     0.068 A 
ATOM     15  C   UNL     1      25.264  66.999  26.400  1.00  0.00     0.044 A 
ATOM     16  C   UNL     1      25.112  66.063  24.190  1.00  0.00     0.160 A 
ATOM     17  C   UNL     1      25.608  66.014  25.485  1.00  0.00     0.158 A 
ATOM     18  F   UNL     1      25.440  65.112  23.305  1.00  0.00    -0.204 F 
ATOM     19  F   UNL     1      26.420  65.017  25.861  1.00  0.00    -0.204 F 
ENDBRANCH  10  12
ENDBRANCH   1   8
BRANCH   6  20
ATOM     20  S   UNL     1      19.078  70.700  21.213  1.00  0.00     0.246 S 
ATOM     21  O   UNL     1      17.718  71.032  21.576  1.00  0.00    -0.207 OA
ATOM     22  O   UNL     1      19.478  69.319  21.033  1.00  0.00    -0.207 OA
BRANCH  20  23
ATOM     23  N   UNL     1      19.487  71.519  19.780  1.00  0.00    -0.193 NA
ATOM     24  C   UNL     1      20.411  70.798  18.845  1.00  0.00     0.131 C 
ATOM     25  C   UNL     1      18.297  72.092  19.070  1.00  0.00     0.131 C 
ATOM     26  C   UNL     1      19.659  70.285  17.614  1.00  0.00     0.177 C 
ATOM     27  C   UNL     1      18.664  72.467  17.632  1.00  0.00     0.177 C 
ATOM     28  O   UNL     1      19.069  71.340  16.841  1.00  0.00    -0.379 OA
ENDBRANCH  20  23
ENDBRANCH   6  20
TORSDOF 4
ENDMDL
