MODEL 1
REMARK VINA RESULT:    -8.017      0.000      0.000
REMARK INTER + INTRA:         -10.956
REMARK INTER:                 -10.829
REMARK INTRA:                  -0.126
REMARK UNBOUND:                -0.126
REMARK SMILES COC(=O)CC[NH+]1CCN(S(=O)(=O)c2cccc(Br)c2)CC1
REMARK SMILES IDX 6 1 5 2 3 3 4 4 2 5 1 6 7 7 8 8 22 9 9 10 21 11 10 12 11 14
REMARK SMILES IDX 12 15 13 16 14 17 15 18 20 19 16 20 18 21 17 22 19 23
REMARK H PARENT 7 13
ROOT
ATOM      1  C   UNL     1       3.707  -8.240  46.277  1.00  0.00     0.274 C 
ENDROOT
BRANCH   1   2
ATOM      2  C   UNL     1       2.737  -7.741  45.210  1.00  0.00     0.184 C 
BRANCH   2   3
ATOM      3  C   UNL     1       3.486  -7.048  44.107  1.00  0.00     0.311 C 
ATOM      4  O   UNL     1       4.582  -7.440  43.715  1.00  0.00    -0.252 OA
BRANCH   3   5
ATOM      5  O   UNL     1       2.818  -5.957  43.671  1.00  0.00    -0.469 OA
ATOM      6  C   UNL     1       1.672  -5.603  44.454  1.00  0.00     0.282 C 
ENDBRANCH   3   5
ENDBRANCH   2   3
ENDBRANCH   1   2
BRANCH   1   7
ATOM      7  N   UNL     1       3.009  -8.834  47.490  1.00  0.00    -0.332 N 
ATOM      8  C   UNL     1       4.018  -9.206  48.579  1.00  0.00     0.279 C 
ATOM      9  C   UNL     1       2.079  -9.995  47.158  1.00  0.00     0.279 C 
ATOM     10  C   UNL     1       3.285  -9.728  49.823  1.00  0.00     0.164 C 
ATOM     11  C   UNL     1       1.429 -10.582  48.431  1.00  0.00     0.164 C 
ATOM     12  N   UNL     1       2.425 -10.907  49.499  1.00  0.00    -0.187 NA
ATOM     13  H   UNL     1       2.424  -8.071  47.889  1.00  0.00     0.348 HD
BRANCH  12  14
ATOM     14  S   UNL     1       3.290 -12.375  49.310  1.00  0.00     0.243 S 
ATOM     15  O   UNL     1       3.692 -12.408  47.920  1.00  0.00    -0.207 OA
ATOM     16  O   UNL     1       4.265 -12.444  50.373  1.00  0.00    -0.207 OA
BRANCH  14  17
ATOM     17  C   UNL     1       2.057 -13.606  49.595  1.00  0.00     0.083 A 
ATOM     18  C   UNL     1       1.124 -13.407  50.618  1.00  0.00     0.022 A 
ATOM     19  C   UNL     1       2.026 -14.759  48.806  1.00  0.00     0.037 A 
ATOM     20  C   UNL     1       0.140 -14.369  50.846  1.00  0.00     0.003 A 
ATOM     21  C   UNL     1       1.036 -15.710  49.043  1.00  0.00     0.019 A 
ATOM     22  C   UNL     1       0.093 -15.520  50.056  1.00  0.00     0.016 A 
ATOM     23  Br  UNL     1       0.966 -17.269  47.978  1.00  0.00    -0.051 Br
ENDBRANCH  14  17
ENDBRANCH  12  14
ENDBRANCH   1   7
TORSDOF 6
ENDMDL
MODEL 2
REMARK VINA RESULT:    -7.992      3.463      7.673
REMARK INTER + INTRA:         -10.921
REMARK INTER:                 -10.767
REMARK INTRA:                  -0.154
REMARK UNBOUND:                -0.126
REMARK SMILES COC(=O)CC[NH+]1CCN(S(=O)(=O)c2cccc(Br)c2)CC1
REMARK SMILES IDX 6 1 5 2 3 3 4 4 2 5 1 6 7 7 8 8 22 9 9 10 21 11 10 12 11 14
REMARK SMILES IDX 12 15 13 16 14 17 15 18 20 19 16 20 18 21 17 22 19 23
REMARK H PARENT 7 13
ROOT
ATOM      1  C   UNL     1       1.541 -14.056  50.131  1.00  0.00     0.274 C 
ENDROOT
BRANCH   1   2
ATOM      2  C   UNL     1       1.673 -15.168  49.094  1.00  0.00     0.184 C 
BRANCH   2   3
ATOM      3  C   UNL     1       0.401 -15.966  49.019  1.00  0.00     0.311 C 
ATOM      4  O   UNL     1      -0.626 -15.613  49.590  1.00  0.00    -0.252 OA
BRANCH   3   5
ATOM      5  O   UNL     1       0.575 -17.097  48.299  1.00  0.00    -0.469 OA
ATOM      6  C   UNL     1      -0.222 -17.181  47.113  1.00  0.00     0.282 C 
ENDBRANCH   3   5
ENDBRANCH   2   3
ENDBRANCH   1   2
BRANCH   1   7
ATOM      7  N   UNL     1       1.633 -12.663  49.529  1.00  0.00    -0.332 N 
ATOM      8  C   UNL     1       2.235 -12.709  48.123  1.00  0.00     0.279 C 
ATOM      9  C   UNL     1       2.350 -11.654  50.420  1.00  0.00     0.279 C 
ATOM     10  C   UNL     1       2.244 -11.303  47.506  1.00  0.00     0.164 C 
ATOM     11  C   UNL     1       2.447 -10.269  49.742  1.00  0.00     0.164 C 
ATOM     12  N   UNL     1       3.004 -10.335  48.356  1.00  0.00    -0.187 NA
ATOM     13  H   UNL     1       0.653 -12.332  49.412  1.00  0.00     0.348 HD
BRANCH  12  14
ATOM     14  S   UNL     1       4.707 -10.477  48.226  1.00  0.00     0.243 S 
ATOM     15  O   UNL     1       5.242  -9.701  49.325  1.00  0.00    -0.207 OA
ATOM     16  O   UNL     1       5.018 -11.879  48.079  1.00  0.00    -0.207 OA
BRANCH  14  17
ATOM     17  C   UNL     1       5.062  -9.658  46.702  1.00  0.00     0.083 A 
ATOM     18  C   UNL     1       4.283  -8.558  46.326  1.00  0.00     0.022 A 
ATOM     19  C   UNL     1       6.105 -10.112  45.891  1.00  0.00     0.037 A 
ATOM     20  C   UNL     1       4.560  -7.899  45.130  1.00  0.00     0.003 A 
ATOM     21  C   UNL     1       6.373  -9.441  44.700  1.00  0.00     0.019 A 
ATOM     22  C   UNL     1       5.608  -8.338  44.316  1.00  0.00     0.016 A 
ATOM     23  Br  UNL     1       7.789 -10.029  43.596  1.00  0.00    -0.051 Br
ENDBRANCH  14  17
ENDBRANCH  12  14
ENDBRANCH   1   7
TORSDOF 6
ENDMDL
MODEL 3
REMARK VINA RESULT:    -7.880      3.578      7.908
REMARK INTER + INTRA:         -10.771
REMARK INTER:                 -10.565
REMARK INTRA:                  -0.205
REMARK UNBOUND:                -0.126
REMARK SMILES COC(=O)CC[NH+]1CCN(S(=O)(=O)c2cccc(Br)c2)CC1
REMARK SMILES IDX 6 1 5 2 3 3 4 4 2 5 1 6 7 7 8 8 22 9 9 10 21 11 10 12 11 14
REMARK SMILES IDX 12 15 13 16 14 17 15 18 20 19 16 20 18 21 17 22 19 23
REMARK H PARENT 7 13
ROOT
ATOM      1  C   UNL     1       1.836 -14.059  50.016  1.00  0.00     0.274 C 
ENDROOT
BRANCH   1   2
ATOM      2  C   UNL     1       1.562 -15.143  48.978  1.00  0.00     0.184 C 
BRANCH   2   3
ATOM      3  C   UNL     1       0.206 -15.751  49.203  1.00  0.00     0.311 C 
ATOM      4  O   UNL     1      -0.544 -15.364  50.095  1.00  0.00    -0.252 OA
BRANCH   3   5
ATOM      5  O   UNL     1      -0.023 -16.768  48.343  1.00  0.00    -0.469 OA
ATOM      6  C   UNL     1       1.061 -17.693  48.205  1.00  0.00     0.282 C 
ENDBRANCH   3   5
ENDBRANCH   2   3
ENDBRANCH   1   2
BRANCH   1   7
ATOM      7  N   UNL     1       1.842 -12.656  49.430  1.00  0.00    -0.332 N 
ATOM      8  C   UNL     1       2.337 -12.667  47.983  1.00  0.00     0.279 C 
ATOM      9  C   UNL     1       2.595 -11.637  50.280  1.00  0.00     0.279 C 
ATOM     10  C   UNL     1       2.260 -11.253  47.387  1.00  0.00     0.164 C 
ATOM     11  C   UNL     1       2.601 -10.242  49.617  1.00  0.00     0.164 C 
ATOM     12  N   UNL     1       3.053 -10.274  48.191  1.00  0.00    -0.187 NA
ATOM     13  H   UNL     1       0.847 -12.353  49.392  1.00  0.00     0.348 HD
BRANCH  12  14
ATOM     14  S   UNL     1       4.745 -10.363  47.932  1.00  0.00     0.243 S 
ATOM     15  O   UNL     1       5.343  -9.682  49.061  1.00  0.00    -0.207 OA
ATOM     16  O   UNL     1       5.067 -11.737  47.631  1.00  0.00    -0.207 OA
BRANCH  14  17
ATOM     17  C   UNL     1       4.978  -9.396  46.473  1.00  0.00     0.083 A 
ATOM     18  C   UNL     1       5.984  -9.762  45.571  1.00  0.00     0.022 A 
ATOM     19  C   UNL     1       4.168  -8.283  46.235  1.00  0.00     0.037 A 
ATOM     20  C   UNL     1       6.171  -9.011  44.412  1.00  0.00     0.003 A 
ATOM     21  C   UNL     1       4.364  -7.545  45.071  1.00  0.00     0.019 A 
ATOM     22  C   UNL     1       5.358  -7.903  44.158  1.00  0.00     0.016 A 
ATOM     23  Br  UNL     1       3.268  -6.045  44.722  1.00  0.00    -0.051 Br
ENDBRANCH  14  17
ENDBRANCH  12  14
ENDBRANCH   1   7
TORSDOF 6
ENDMDL
MODEL 4
REMARK VINA RESULT:    -7.553      1.313      1.932
REMARK INTER + INTRA:         -10.329
REMARK INTER:                 -10.049
REMARK INTRA:                  -0.280
REMARK UNBOUND:                -0.126
REMARK SMILES COC(=O)CC[NH+]1CCN(S(=O)(=O)c2cccc(Br)c2)CC1
REMARK SMILES IDX 6 1 5 2 3 3 4 4 2 5 1 6 7 7 8 8 22 9 9 10 21 11 10 12 11 14
REMARK SMILES IDX 12 15 13 16 14 17 15 18 20 19 16 20 18 21 17 22 19 23
REMARK H PARENT 7 13
ROOT
ATOM      1  C   UNL     1       4.743  -8.317  46.602  1.00  0.00     0.274 C 
ENDROOT
BRANCH   1   2
ATOM      2  C   UNL     1       4.232  -8.053  45.188  1.00  0.00     0.184 C 
BRANCH   2   3
ATOM      3  C   UNL     1       5.320  -8.313  44.183  1.00  0.00     0.311 C 
ATOM      4  O   UNL     1       5.268  -7.876  43.036  1.00  0.00    -0.252 OA
BRANCH   3   5
ATOM      5  O   UNL     1       6.287  -9.101  44.702  1.00  0.00    -0.469 OA
ATOM      6  C   UNL     1       7.105  -9.765  43.732  1.00  0.00     0.282 C 
ENDBRANCH   3   5
ENDBRANCH   2   3
ENDBRANCH   1   2
BRANCH   1   7
ATOM      7  N   UNL     1       3.685  -8.907  47.519  1.00  0.00    -0.332 N 
ATOM      8  C   UNL     1       4.284  -9.294  48.873  1.00  0.00     0.279 C 
ATOM      9  C   UNL     1       2.902 -10.059  46.896  1.00  0.00     0.279 C 
ATOM     10  C   UNL     1       3.183  -9.813  49.809  1.00  0.00     0.164 C 
ATOM     11  C   UNL     1       1.870 -10.643  47.886  1.00  0.00     0.164 C 
ATOM     12  N   UNL     1       2.464 -10.983  49.216  1.00  0.00    -0.187 NA
ATOM     13  H   UNL     1       3.007  -8.141  47.712  1.00  0.00     0.348 HD
BRANCH  12  14
ATOM     14  S   UNL     1       3.331 -12.458  49.308  1.00  0.00     0.243 S 
ATOM     15  O   UNL     1       3.893 -12.656  47.989  1.00  0.00    -0.207 OA
ATOM     16  O   UNL     1       4.174 -12.395  50.478  1.00  0.00    -0.207 OA
BRANCH  14  17
ATOM     17  C   UNL     1       2.062 -13.652  49.591  1.00  0.00     0.083 A 
ATOM     18  C   UNL     1       1.113 -13.409  50.590  1.00  0.00     0.022 A 
ATOM     19  C   UNL     1       2.018 -14.820  48.825  1.00  0.00     0.037 A 
ATOM     20  C   UNL     1       0.101 -14.341  50.816  1.00  0.00     0.003 A 
ATOM     21  C   UNL     1       0.999 -15.740  49.060  1.00  0.00     0.019 A 
ATOM     22  C   UNL     1       0.041 -15.507  50.048  1.00  0.00     0.016 A 
ATOM     23  Br  UNL     1       0.911 -17.318  48.025  1.00  0.00    -0.051 Br
ENDBRANCH  14  17
ENDBRANCH  12  14
ENDBRANCH   1   7
TORSDOF 6
ENDMDL
MODEL 5
REMARK VINA RESULT:    -7.517      2.206      2.794
REMARK INTER + INTRA:         -10.280
REMARK INTER:                  -9.991
REMARK INTRA:                  -0.289
REMARK UNBOUND:                -0.126
REMARK SMILES COC(=O)CC[NH+]1CCN(S(=O)(=O)c2cccc(Br)c2)CC1
REMARK SMILES IDX 6 1 5 2 3 3 4 4 2 5 1 6 7 7 8 8 22 9 9 10 21 11 10 12 11 14
REMARK SMILES IDX 12 15 13 16 14 17 15 18 20 19 16 20 18 21 17 22 19 23
REMARK H PARENT 7 13
ROOT
ATOM      1  C   UNL     1       1.454  -7.803  49.206  1.00  0.00     0.274 C 
ENDROOT
BRANCH   1   2
ATOM      2  C   UNL     1       0.147  -7.390  48.535  1.00  0.00     0.184 C 
BRANCH   2   3
ATOM      3  C   UNL     1       0.426  -6.702  47.228  1.00  0.00     0.311 C 
ATOM      4  O   UNL     1       1.545  -6.688  46.723  1.00  0.00    -0.252 OA
BRANCH   3   5
ATOM      5  O   UNL     1      -0.682  -6.095  46.748  1.00  0.00    -0.469 OA
ATOM      6  C   UNL     1      -1.771  -6.015  47.674  1.00  0.00     0.282 C 
ENDBRANCH   3   5
ENDBRANCH   2   3
ENDBRANCH   1   2
BRANCH   1   7
ATOM      7  N   UNL     1       2.156  -8.947  48.493  1.00  0.00    -0.332 N 
ATOM      8  C   UNL     1       1.298 -10.214  48.506  1.00  0.00     0.279 C 
ATOM      9  C   UNL     1       3.569  -9.215  49.002  1.00  0.00     0.279 C 
ATOM     10  C   UNL     1       1.992 -11.331  47.713  1.00  0.00     0.164 C 
ATOM     11  C   UNL     1       4.218 -10.410  48.270  1.00  0.00     0.164 C 
ATOM     12  N   UNL     1       3.351 -11.630  48.260  1.00  0.00    -0.187 NA
ATOM     13  H   UNL     1       2.235  -8.663  47.495  1.00  0.00     0.348 HD
BRANCH  12  14
ATOM     14  S   UNL     1       3.338 -12.566  49.695  1.00  0.00     0.243 S 
ATOM     15  O   UNL     1       4.698 -13.034  49.861  1.00  0.00    -0.207 OA
ATOM     16  O   UNL     1       2.687 -11.783  50.719  1.00  0.00    -0.207 OA
BRANCH  14  17
ATOM     17  C   UNL     1       2.294 -13.927  49.277  1.00  0.00     0.083 A 
ATOM     18  C   UNL     1       1.296 -14.316  50.176  1.00  0.00     0.022 A 
ATOM     19  C   UNL     1       2.475 -14.599  48.066  1.00  0.00     0.037 A 
ATOM     20  C   UNL     1       0.460 -15.384  49.852  1.00  0.00     0.003 A 
ATOM     21  C   UNL     1       1.631 -15.662  47.754  1.00  0.00     0.019 A 
ATOM     22  C   UNL     1       0.624 -16.057  48.638  1.00  0.00     0.016 A 
ATOM     23  Br  UNL     1       1.847 -16.575  46.114  1.00  0.00    -0.051 Br
ENDBRANCH  14  17
ENDBRANCH  12  14
ENDBRANCH   1   7
TORSDOF 6
ENDMDL
MODEL 6
REMARK VINA RESULT:    -7.489      5.389      7.263
REMARK INTER + INTRA:         -10.243
REMARK INTER:                 -10.319
REMARK INTRA:                   0.077
REMARK UNBOUND:                -0.126
REMARK SMILES COC(=O)CC[NH+]1CCN(S(=O)(=O)c2cccc(Br)c2)CC1
REMARK SMILES IDX 6 1 5 2 3 3 4 4 2 5 1 6 7 7 8 8 22 9 9 10 21 11 10 12 11 14
REMARK SMILES IDX 12 15 13 16 14 17 15 18 20 19 16 20 18 21 17 22 19 23
REMARK H PARENT 7 13
ROOT
ATOM      1  C   UNL     1      -1.999  -6.977  46.758  1.00  0.00     0.274 C 
ENDROOT
BRANCH   1   2
ATOM      2  C   UNL     1      -1.541  -5.652  47.360  1.00  0.00     0.184 C 
BRANCH   2   3
ATOM      3  C   UNL     1      -1.047  -5.859  48.764  1.00  0.00     0.311 C 
ATOM      4  O   UNL     1      -0.965  -4.936  49.571  1.00  0.00    -0.252 OA
BRANCH   3   5
ATOM      5  O   UNL     1      -0.684  -7.144  48.971  1.00  0.00    -0.469 OA
ATOM      6  C   UNL     1       0.589  -7.314  49.604  1.00  0.00     0.282 C 
ENDBRANCH   3   5
ENDBRANCH   2   3
ENDBRANCH   1   2
BRANCH   1   7
ATOM      7  N   UNL     1      -1.085  -7.480  45.653  1.00  0.00    -0.332 N 
ATOM      8  C   UNL     1       0.157  -8.161  46.233  1.00  0.00     0.279 C 
ATOM      9  C   UNL     1      -0.719  -6.416  44.623  1.00  0.00     0.279 C 
ATOM     10  C   UNL     1       1.025  -8.730  45.101  1.00  0.00     0.164 C 
ATOM     11  C   UNL     1       0.240  -6.973  43.549  1.00  0.00     0.164 C 
ATOM     12  N   UNL     1       1.431  -7.666  44.132  1.00  0.00    -0.187 NA
ATOM     13  H   UNL     1      -1.615  -8.224  45.154  1.00  0.00     0.348 HD
BRANCH  12  14
ATOM     14  S   UNL     1       2.700  -6.659  44.689  1.00  0.00     0.243 S 
ATOM     15  O   UNL     1       2.951  -5.725  43.612  1.00  0.00    -0.207 OA
ATOM     16  O   UNL     1       2.343  -6.199  46.010  1.00  0.00    -0.207 OA
BRANCH  14  17
ATOM     17  C   UNL     1       4.063  -7.773  44.830  1.00  0.00     0.083 A 
ATOM     18  C   UNL     1       4.960  -7.885  43.762  1.00  0.00     0.022 A 
ATOM     19  C   UNL     1       4.231  -8.529  45.993  1.00  0.00     0.037 A 
ATOM     20  C   UNL     1       6.044  -8.755  43.865  1.00  0.00     0.003 A 
ATOM     21  C   UNL     1       5.321  -9.391  46.083  1.00  0.00     0.019 A 
ATOM     22  C   UNL     1       6.228  -9.507  45.028  1.00  0.00     0.016 A 
ATOM     23  Br  UNL     1       5.576 -10.411  47.654  1.00  0.00    -0.051 Br
ENDBRANCH  14  17
ENDBRANCH  12  14
ENDBRANCH   1   7
TORSDOF 6
ENDMDL
MODEL 7
REMARK VINA RESULT:    -7.467      1.606      1.882
REMARK INTER + INTRA:         -10.213
REMARK INTER:                  -9.956
REMARK INTRA:                  -0.256
REMARK UNBOUND:                -0.126
REMARK SMILES COC(=O)CC[NH+]1CCN(S(=O)(=O)c2cccc(Br)c2)CC1
REMARK SMILES IDX 6 1 5 2 3 3 4 4 2 5 1 6 7 7 8 8 22 9 9 10 21 11 10 12 11 14
REMARK SMILES IDX 12 15 13 16 14 17 15 18 20 19 16 20 18 21 17 22 19 23
REMARK H PARENT 7 13
ROOT
ATOM      1  C   UNL     1       2.295  -8.377  45.787  1.00  0.00     0.274 C 
ENDROOT
BRANCH   1   2
ATOM      2  C   UNL     1       1.019  -8.543  44.967  1.00  0.00     0.184 C 
BRANCH   2   3
ATOM      3  C   UNL     1       0.204  -7.281  45.008  1.00  0.00     0.311 C 
ATOM      4  O   UNL     1      -0.112  -6.674  43.989  1.00  0.00    -0.252 OA
BRANCH   3   5
ATOM      5  O   UNL     1      -0.070  -6.917  46.280  1.00  0.00    -0.469 OA
ATOM      6  C   UNL     1      -1.339  -7.364  46.772  1.00  0.00     0.282 C 
ENDBRANCH   3   5
ENDBRANCH   2   3
ENDBRANCH   1   2
BRANCH   1   7
ATOM      7  N   UNL     1       2.147  -8.840  47.227  1.00  0.00    -0.332 N 
ATOM      8  C   UNL     1       3.513  -9.049  47.882  1.00  0.00     0.279 C 
ATOM      9  C   UNL     1       1.247 -10.061  47.392  1.00  0.00     0.279 C 
ATOM     10  C   UNL     1       3.338  -9.439  49.358  1.00  0.00     0.164 C 
ATOM     11  C   UNL     1       1.164 -10.509  48.867  1.00  0.00     0.164 C 
ATOM     12  N   UNL     1       2.508 -10.674  49.504  1.00  0.00    -0.187 NA
ATOM     13  H   UNL     1       1.698  -8.054  47.740  1.00  0.00     0.348 HD
BRANCH  12  14
ATOM     14  S   UNL     1       3.345 -12.127  49.150  1.00  0.00     0.243 S 
ATOM     15  O   UNL     1       3.575 -12.098  47.720  1.00  0.00    -0.207 OA
ATOM     16  O   UNL     1       4.442 -12.236  50.081  1.00  0.00    -0.207 OA
BRANCH  14  17
ATOM     17  C   UNL     1       2.157 -13.376  49.528  1.00  0.00     0.083 A 
ATOM     18  C   UNL     1       1.384 -13.248  50.687  1.00  0.00     0.022 A 
ATOM     19  C   UNL     1       2.002 -14.474  48.678  1.00  0.00     0.037 A 
ATOM     20  C   UNL     1       0.437 -14.224  50.992  1.00  0.00     0.003 A 
ATOM     21  C   UNL     1       1.049 -15.440  48.994  1.00  0.00     0.019 A 
ATOM     22  C   UNL     1       0.266 -15.321  50.143  1.00  0.00     0.016 A 
ATOM     23  Br  UNL     1       0.813 -16.925  47.849  1.00  0.00    -0.051 Br
ENDBRANCH  14  17
ENDBRANCH  12  14
ENDBRANCH   1   7
TORSDOF 6
ENDMDL
MODEL 8
REMARK VINA RESULT:    -7.382      2.325      3.008
REMARK INTER + INTRA:         -10.098
REMARK INTER:                  -9.710
REMARK INTRA:                  -0.388
REMARK UNBOUND:                -0.126
REMARK SMILES COC(=O)CC[NH+]1CCN(S(=O)(=O)c2cccc(Br)c2)CC1
REMARK SMILES IDX 6 1 5 2 3 3 4 4 2 5 1 6 7 7 8 8 22 9 9 10 21 11 10 12 11 14
REMARK SMILES IDX 12 15 13 16 14 17 15 18 20 19 16 20 18 21 17 22 19 23
REMARK H PARENT 7 13
ROOT
ATOM      1  C   UNL     1       0.488  -6.163  45.467  1.00  0.00     0.274 C 
ENDROOT
BRANCH   1   2
ATOM      2  C   UNL     1       1.051  -6.867  44.235  1.00  0.00     0.184 C 
BRANCH   2   3
ATOM      3  C   UNL     1       2.522  -6.593  44.103  1.00  0.00     0.311 C 
ATOM      4  O   UNL     1       2.952  -5.513  43.708  1.00  0.00    -0.252 OA
BRANCH   3   5
ATOM      5  O   UNL     1       3.254  -7.682  44.426  1.00  0.00    -0.469 OA
ATOM      6  C   UNL     1       4.670  -7.468  44.449  1.00  0.00     0.282 C 
ENDBRANCH   3   5
ENDBRANCH   2   3
ENDBRANCH   1   2
BRANCH   1   7
ATOM      7  N   UNL     1       0.275  -7.098  46.645  1.00  0.00    -0.332 N 
ATOM      8  C   UNL     1       1.308  -6.844  47.745  1.00  0.00     0.279 C 
ATOM      9  C   UNL     1       0.210  -8.573  46.259  1.00  0.00     0.279 C 
ATOM     10  C   UNL     1       1.024  -7.744  48.956  1.00  0.00     0.164 C 
ATOM     11  C   UNL     1       0.030  -9.476  47.498  1.00  0.00     0.164 C 
ATOM     12  N   UNL     1       1.026  -9.191  48.578  1.00  0.00    -0.187 NA
ATOM     13  H   UNL     1      -0.648  -6.844  47.054  1.00  0.00     0.348 HD
BRANCH  12  14
ATOM     14  S   UNL     1       2.590  -9.857  48.366  1.00  0.00     0.243 S 
ATOM     15  O   UNL     1       2.914  -9.641  46.971  1.00  0.00    -0.207 OA
ATOM     16  O   UNL     1       3.431  -9.337  49.418  1.00  0.00    -0.207 OA
BRANCH  14  17
ATOM     17  C   UNL     1       2.334 -11.581  48.650  1.00  0.00     0.083 A 
ATOM     18  C   UNL     1       2.880 -12.504  47.751  1.00  0.00     0.022 A 
ATOM     19  C   UNL     1       1.594 -12.004  49.756  1.00  0.00     0.037 A 
ATOM     20  C   UNL     1       2.691 -13.867  47.970  1.00  0.00     0.003 A 
ATOM     21  C   UNL     1       1.417 -13.370  49.964  1.00  0.00     0.019 A 
ATOM     22  C   UNL     1       1.962 -14.303  49.079  1.00  0.00     0.016 A 
ATOM     23  Br  UNL     1       0.432 -13.965  51.463  1.00  0.00    -0.051 Br
ENDBRANCH  14  17
ENDBRANCH  12  14
ENDBRANCH   1   7
TORSDOF 6
ENDMDL
MODEL 9
REMARK VINA RESULT:    -7.352      3.053      3.887
REMARK INTER + INTRA:         -10.057
REMARK INTER:                  -9.573
REMARK INTRA:                  -0.484
REMARK UNBOUND:                -0.126
REMARK SMILES COC(=O)CC[NH+]1CCN(S(=O)(=O)c2cccc(Br)c2)CC1
REMARK SMILES IDX 6 1 5 2 3 3 4 4 2 5 1 6 7 7 8 8 22 9 9 10 21 11 10 12 11 14
REMARK SMILES IDX 12 15 13 16 14 17 15 18 20 19 16 20 18 21 17 22 19 23
REMARK H PARENT 7 13
ROOT
ATOM      1  C   UNL     1       0.217  -5.959  47.793  1.00  0.00     0.274 C 
ENDROOT
BRANCH   1   2
ATOM      2  C   UNL     1      -1.210  -5.481  47.537  1.00  0.00     0.184 C 
BRANCH   2   3
ATOM      3  C   UNL     1      -1.856  -6.316  46.467  1.00  0.00     0.311 C 
ATOM      4  O   UNL     1      -2.571  -7.279  46.733  1.00  0.00    -0.252 OA
BRANCH   3   5
ATOM      5  O   UNL     1      -1.505  -5.889  45.234  1.00  0.00    -0.469 OA
ATOM      6  C   UNL     1      -1.483  -6.909  44.230  1.00  0.00     0.282 C 
ENDBRANCH   3   5
ENDBRANCH   2   3
ENDBRANCH   1   2
BRANCH   1   7
ATOM      7  N   UNL     1       0.525  -7.298  47.144  1.00  0.00    -0.332 N 
ATOM      8  C   UNL     1       0.176  -8.457  48.081  1.00  0.00     0.279 C 
ATOM      9  C   UNL     1       1.949  -7.411  46.609  1.00  0.00     0.279 C 
ATOM     10  C   UNL     1       0.421  -9.799  47.375  1.00  0.00     0.164 C 
ATOM     11  C   UNL     1       2.216  -8.803  45.997  1.00  0.00     0.164 C 
ATOM     12  N   UNL     1       1.836  -9.925  46.911  1.00  0.00    -0.187 NA
ATOM     13  H   UNL     1      -0.119  -7.381  46.331  1.00  0.00     0.348 HD
BRANCH  12  14
ATOM     14  S   UNL     1       2.951 -10.302  48.157  1.00  0.00     0.243 S 
ATOM     15  O   UNL     1       4.254 -10.287  47.526  1.00  0.00    -0.207 OA
ATOM     16  O   UNL     1       2.654  -9.444  49.280  1.00  0.00    -0.207 OA
BRANCH  14  17
ATOM     17  C   UNL     1       2.526 -11.961  48.587  1.00  0.00     0.083 A 
ATOM     18  C   UNL     1       2.969 -13.007  47.771  1.00  0.00     0.022 A 
ATOM     19  C   UNL     1       1.756 -12.212  49.726  1.00  0.00     0.037 A 
ATOM     20  C   UNL     1       2.647 -14.321  48.105  1.00  0.00     0.003 A 
ATOM     21  C   UNL     1       1.445 -13.531  50.049  1.00  0.00     0.019 A 
ATOM     22  C   UNL     1       1.887 -14.585  49.248  1.00  0.00     0.016 A 
ATOM     23  Br  UNL     1       0.418 -13.895  51.593  1.00  0.00    -0.051 Br
ENDBRANCH  14  17
ENDBRANCH  12  14
ENDBRANCH   1   7
TORSDOF 6
ENDMDL
MODEL 10
REMARK VINA RESULT:    -7.255      3.788      7.811
REMARK INTER + INTRA:          -9.926
REMARK INTER:                  -9.637
REMARK INTRA:                  -0.289
REMARK UNBOUND:                -0.126
REMARK SMILES COC(=O)CC[NH+]1CCN(S(=O)(=O)c2cccc(Br)c2)CC1
REMARK SMILES IDX 6 1 5 2 3 3 4 4 2 5 1 6 7 7 8 8 22 9 9 10 21 11 10 12 11 14
REMARK SMILES IDX 12 15 13 16 14 17 15 18 20 19 16 20 18 21 17 22 19 23
REMARK H PARENT 7 13
ROOT
ATOM      1  C   UNL     1       3.512 -12.867  49.591  1.00  0.00     0.274 C 
ENDROOT
BRANCH   1   2
ATOM      2  C   UNL     1       2.145 -13.536  49.709  1.00  0.00     0.184 C 
BRANCH   2   3
ATOM      3  C   UNL     1       2.004 -14.621  48.679  1.00  0.00     0.311 C 
ATOM      4  O   UNL     1       2.785 -14.735  47.738  1.00  0.00    -0.252 OA
BRANCH   3   5
ATOM      5  O   UNL     1       0.912 -15.381  48.916  1.00  0.00    -0.469 OA
ATOM      6  C   UNL     1       1.179 -16.778  49.088  1.00  0.00     0.282 C 
ENDBRANCH   3   5
ENDBRANCH   2   3
ENDBRANCH   1   2
BRANCH   1   7
ATOM      7  N   UNL     1       3.427 -11.373  49.324  1.00  0.00    -0.332 N 
ATOM      8  C   UNL     1       2.048 -10.825  49.699  1.00  0.00     0.279 C 
ATOM      9  C   UNL     1       3.829 -10.976  47.908  1.00  0.00     0.279 C 
ATOM     10  C   UNL     1       2.012  -9.303  49.497  1.00  0.00     0.164 C 
ATOM     11  C   UNL     1       3.685  -9.455  47.684  1.00  0.00     0.164 C 
ATOM     12  N   UNL     1       2.345  -8.928  48.088  1.00  0.00    -0.187 NA
ATOM     13  H   UNL     1       4.102 -10.923  49.976  1.00  0.00     0.348 HD
BRANCH  12  14
ATOM     14  S   UNL     1       1.064  -9.174  46.977  1.00  0.00     0.243 S 
ATOM     15  O   UNL     1       1.329 -10.458  46.362  1.00  0.00    -0.207 OA
ATOM     16  O   UNL     1      -0.174  -8.921  47.676  1.00  0.00    -0.207 OA
BRANCH  14  17
ATOM     17  C   UNL     1       1.312  -7.891  45.789  1.00  0.00     0.083 A 
ATOM     18  C   UNL     1       0.954  -8.124  44.456  1.00  0.00     0.022 A 
ATOM     19  C   UNL     1       1.861  -6.669  46.184  1.00  0.00     0.037 A 
ATOM     20  C   UNL     1       1.137  -7.115  43.512  1.00  0.00     0.003 A 
ATOM     21  C   UNL     1       2.035  -5.670  45.230  1.00  0.00     0.019 A 
ATOM     22  C   UNL     1       1.675  -5.885  43.898  1.00  0.00     0.016 A 
ATOM     23  Br  UNL     1       2.761  -4.003  45.747  1.00  0.00    -0.051 Br
ENDBRANCH  14  17
ENDBRANCH  12  14
ENDBRANCH   1   7
TORSDOF 6
ENDMDL
