MODEL 1
REMARK VINA RESULT:    -8.587      0.000      0.000
REMARK INTER + INTRA:         -10.275
REMARK INTER:                 -10.094
REMARK INTRA:                  -0.181
REMARK UNBOUND:                -0.181
REMARK SMILES Cc1ccc(S(=O)(=O)Nc2cccnc2)cc1C
REMARK SMILES IDX 6 1 7 2 8 3 5 4 2 5 3 6 17 7 4 8 16 9 1 10 18 11 9 12 10 14
REMARK SMILES IDX 11 15 15 16 12 17 14 18 13 19
REMARK H PARENT 9 13
ROOT
ATOM      1  S   UNL     1       0.957 -16.545  48.450  1.00  0.00     0.261 S 
ATOM      2  O   UNL     1       1.317 -17.868  48.909  1.00  0.00    -0.201 OA
ATOM      3  O   UNL     1      -0.095 -15.786  49.093  1.00  0.00    -0.201 OA
ENDROOT
BRANCH   1   4
ATOM      4  C   UNL     1       0.568 -16.640  46.717  1.00  0.00     0.088 A 
ATOM      5  C   UNL     1      -0.025 -16.772  43.985  1.00  0.00    -0.048 A 
ATOM      6  C   UNL     1      -1.044 -16.571  44.931  1.00  0.00     0.005 A 
ATOM      7  C   UNL     1       1.314 -16.891  44.419  1.00  0.00    -0.047 A 
ATOM      8  C   UNL     1      -0.752 -16.498  46.293  1.00  0.00     0.022 A 
ATOM      9  C   UNL     1       1.601 -16.820  45.790  1.00  0.00     0.026 A 
ATOM     10  C   UNL     1      -0.383 -16.837  42.524  1.00  0.00     0.044 C 
ATOM     11  C   UNL     1       2.440 -17.084  43.440  1.00  0.00     0.044 C 
ENDBRANCH   1   4
BRANCH   1  12
ATOM     12  N   UNL     1       2.324 -15.555  48.474  1.00  0.00    -0.278 N 
ATOM     13  H   UNL     1       3.141 -16.037  48.843  1.00  0.00     0.180 HD
BRANCH  12  14
ATOM     14  C   UNL     1       2.174 -14.165  48.745  1.00  0.00     0.067 A 
ATOM     15  C   UNL     1       2.362 -13.248  47.713  1.00  0.00     0.030 A 
ATOM     16  C   UNL     1       1.856 -13.669  50.006  1.00  0.00     0.137 A 
ATOM     17  C   UNL     1       2.242 -11.885  47.978  1.00  0.00     0.022 A 
ATOM     18  N   UNL     1       1.737 -12.350  50.290  1.00  0.00    -0.263 NA
ATOM     19  C   UNL     1       1.933 -11.489  49.269  1.00  0.00     0.111 A 
ENDBRANCH  12  14
ENDBRANCH   1  12
TORSDOF 3
ENDMDL
MODEL 2
REMARK VINA RESULT:    -8.580      8.064      9.455
REMARK INTER + INTRA:         -10.266
REMARK INTER:                  -9.777
REMARK INTRA:                  -0.488
REMARK UNBOUND:                -0.181
REMARK SMILES Cc1ccc(S(=O)(=O)Nc2cccnc2)cc1C
REMARK SMILES IDX 6 1 7 2 8 3 5 4 2 5 3 6 17 7 4 8 16 9 1 10 18 11 9 12 10 14
REMARK SMILES IDX 11 15 15 16 12 17 14 18 13 19
REMARK H PARENT 9 13
ROOT
ATOM      1  S   UNL     1       3.267  -6.052  44.950  1.00  0.00     0.261 S 
ATOM      2  O   UNL     1       2.788  -5.930  43.591  1.00  0.00    -0.201 OA
ATOM      3  O   UNL     1       3.935  -4.951  45.613  1.00  0.00    -0.201 OA
ENDROOT
BRANCH   1   4
ATOM      4  C   UNL     1       4.341  -7.466  45.042  1.00  0.00     0.088 A 
ATOM      5  C   UNL     1       6.037  -9.685  45.210  1.00  0.00    -0.048 A 
ATOM      6  C   UNL     1       6.100  -8.818  44.107  1.00  0.00     0.005 A 
ATOM      7  C   UNL     1       5.121  -9.423  46.251  1.00  0.00    -0.047 A 
ATOM      8  C   UNL     1       5.260  -7.707  44.022  1.00  0.00     0.022 A 
ATOM      9  C   UNL     1       4.277  -8.306  46.159  1.00  0.00     0.026 A 
ATOM     10  C   UNL     1       6.967 -10.869  45.266  1.00  0.00     0.044 C 
ATOM     11  C   UNL     1       5.035 -10.312  47.463  1.00  0.00     0.044 C 
ENDBRANCH   1   4
BRANCH   1  12
ATOM     12  N   UNL     1       1.984  -6.489  45.956  1.00  0.00    -0.278 N 
ATOM     13  H   UNL     1       2.304  -6.877  46.841  1.00  0.00     0.180 HD
BRANCH  12  14
ATOM     14  C   UNL     1       0.790  -7.009  45.379  1.00  0.00     0.067 A 
ATOM     15  C   UNL     1       0.754  -8.345  44.985  1.00  0.00     0.030 A 
ATOM     16  C   UNL     1      -0.351  -6.240  45.177  1.00  0.00     0.137 A 
ATOM     17  C   UNL     1      -0.402  -8.853  44.396  1.00  0.00     0.022 A 
ATOM     18  N   UNL     1      -1.486  -6.709  44.604  1.00  0.00    -0.263 NA
ATOM     19  C   UNL     1      -1.485  -8.004  44.227  1.00  0.00     0.111 A 
ENDBRANCH  12  14
ENDBRANCH   1  12
TORSDOF 3
ENDMDL
MODEL 3
REMARK VINA RESULT:    -8.361      1.991      6.113
REMARK INTER + INTRA:         -10.009
REMARK INTER:                 -10.552
REMARK INTRA:                   0.543
REMARK UNBOUND:                -0.181
REMARK SMILES Cc1ccc(S(=O)(=O)Nc2cccnc2)cc1C
REMARK SMILES IDX 6 1 7 2 8 3 5 4 2 5 3 6 17 7 4 8 16 9 1 10 18 11 9 12 10 14
REMARK SMILES IDX 11 15 15 16 12 17 14 18 13 19
REMARK H PARENT 9 13
ROOT
ATOM      1  S   UNL     1       0.917 -17.157  47.681  1.00  0.00     0.261 S 
ATOM      2  O   UNL     1      -0.505 -17.174  47.418  1.00  0.00    -0.201 OA
ATOM      3  O   UNL     1       1.575 -18.274  48.326  1.00  0.00    -0.201 OA
ENDROOT
BRANCH   1   4
ATOM      4  C   UNL     1       1.297 -15.694  48.617  1.00  0.00     0.088 A 
ATOM      5  C   UNL     1       1.869 -13.387  50.093  1.00  0.00    -0.048 A 
ATOM      6  C   UNL     1       2.577 -13.678  48.915  1.00  0.00     0.005 A 
ATOM      7  C   UNL     1       0.848 -14.260  50.525  1.00  0.00    -0.047 A 
ATOM      8  C   UNL     1       2.291 -14.824  48.173  1.00  0.00     0.022 A 
ATOM      9  C   UNL     1       0.566 -15.412  49.776  1.00  0.00     0.026 A 
ATOM     10  C   UNL     1       2.206 -12.135  50.859  1.00  0.00     0.044 C 
ATOM     11  C   UNL     1       0.048 -13.975  51.768  1.00  0.00     0.044 C 
ENDBRANCH   1   4
BRANCH   1  12
ATOM     12  N   UNL     1       1.748 -16.903  46.234  1.00  0.00    -0.278 N 
ATOM     13  H   UNL     1       2.543 -16.277  46.351  1.00  0.00     0.180 HD
BRANCH  12  14
ATOM     14  C   UNL     1       1.020 -16.853  45.010  1.00  0.00     0.067 A 
ATOM     15  C   UNL     1       1.680 -17.139  43.817  1.00  0.00     0.030 A 
ATOM     16  C   UNL     1      -0.330 -16.521  44.944  1.00  0.00     0.137 A 
ATOM     17  C   UNL     1       0.980 -17.068  42.614  1.00  0.00     0.022 A 
ATOM     18  N   UNL     1      -1.032 -16.442  43.788  1.00  0.00    -0.263 NA
ATOM     19  C   UNL     1      -0.361 -16.717  42.650  1.00  0.00     0.111 A 
ENDBRANCH  12  14
ENDBRANCH   1  12
TORSDOF 3
ENDMDL
MODEL 4
REMARK VINA RESULT:    -8.280     20.079     21.574
REMARK INTER + INTRA:          -9.913
REMARK INTER:                  -9.613
REMARK INTRA:                  -0.300
REMARK UNBOUND:                -0.181
REMARK SMILES Cc1ccc(S(=O)(=O)Nc2cccnc2)cc1C
REMARK SMILES IDX 6 1 7 2 8 3 5 4 2 5 3 6 17 7 4 8 16 9 1 10 18 11 9 12 10 14
REMARK SMILES IDX 11 15 15 16 12 17 14 18 13 19
REMARK H PARENT 9 13
ROOT
ATOM      1  S   UNL     1      -0.998   0.123  30.572  1.00  0.00     0.261 S 
ATOM      2  O   UNL     1      -0.163   0.875  29.661  1.00  0.00    -0.201 OA
ATOM      3  O   UNL     1      -2.244   0.665  31.072  1.00  0.00    -0.201 OA
ENDROOT
BRANCH   1   4
ATOM      4  C   UNL     1      -0.014  -0.345  31.978  1.00  0.00     0.088 A 
ATOM      5  C   UNL     1       1.523  -1.064  34.203  1.00  0.00    -0.048 A 
ATOM      6  C   UNL     1       2.122  -0.889  32.944  1.00  0.00     0.005 A 
ATOM      7  C   UNL     1       0.134  -0.858  34.347  1.00  0.00    -0.047 A 
ATOM      8  C   UNL     1       1.361  -0.525  31.834  1.00  0.00     0.022 A 
ATOM      9  C   UNL     1      -0.627  -0.494  33.226  1.00  0.00     0.026 A 
ATOM     10  C   UNL     1       2.383  -1.450  35.377  1.00  0.00     0.044 C 
ATOM     11  C   UNL     1      -0.546  -1.011  35.681  1.00  0.00     0.044 C 
ENDBRANCH   1   4
BRANCH   1  12
ATOM     12  N   UNL     1      -1.386  -1.364  29.874  1.00  0.00    -0.278 N 
ATOM     13  H   UNL     1      -2.360  -1.617  30.025  1.00  0.00     0.180 HD
BRANCH  12  14
ATOM     14  C   UNL     1      -0.410  -2.401  29.853  1.00  0.00     0.067 A 
ATOM     15  C   UNL     1      -0.497  -3.434  30.784  1.00  0.00     0.030 A 
ATOM     16  C   UNL     1       0.645  -2.431  28.945  1.00  0.00     0.137 A 
ATOM     17  C   UNL     1       0.469  -4.438  30.786  1.00  0.00     0.022 A 
ATOM     18  N   UNL     1       1.599  -3.394  28.928  1.00  0.00    -0.263 NA
ATOM     19  C   UNL     1       1.488  -4.374  29.849  1.00  0.00     0.111 A 
ENDBRANCH  12  14
ENDBRANCH   1  12
TORSDOF 3
ENDMDL
MODEL 5
REMARK VINA RESULT:    -8.279      8.085      9.056
REMARK INTER + INTRA:          -9.912
REMARK INTER:                  -9.553
REMARK INTRA:                  -0.359
REMARK UNBOUND:                -0.181
REMARK SMILES Cc1ccc(S(=O)(=O)Nc2cccnc2)cc1C
REMARK SMILES IDX 6 1 7 2 8 3 5 4 2 5 3 6 17 7 4 8 16 9 1 10 18 11 9 12 10 14
REMARK SMILES IDX 11 15 15 16 12 17 14 18 13 19
REMARK H PARENT 9 13
ROOT
ATOM      1  S   UNL     1       2.747  -6.761  45.269  1.00  0.00     0.261 S 
ATOM      2  O   UNL     1       1.718  -7.150  44.330  1.00  0.00    -0.201 OA
ATOM      3  O   UNL     1       3.250  -5.403  45.314  1.00  0.00    -0.201 OA
ENDROOT
BRANCH   1   4
ATOM      4  C   UNL     1       4.141  -7.843  45.054  1.00  0.00     0.088 A 
ATOM      5  C   UNL     1       6.344  -9.540  44.740  1.00  0.00    -0.048 A 
ATOM      6  C   UNL     1       5.989  -8.632  43.728  1.00  0.00     0.005 A 
ATOM      7  C   UNL     1       5.590  -9.583  45.933  1.00  0.00    -0.047 A 
ATOM      8  C   UNL     1       4.895  -7.780  43.884  1.00  0.00     0.022 A 
ATOM      9  C   UNL     1       4.490  -8.726  46.082  1.00  0.00     0.026 A 
ATOM     10  C   UNL     1       7.536 -10.437  44.534  1.00  0.00     0.044 C 
ATOM     11  C   UNL     1       5.948 -10.524  47.051  1.00  0.00     0.044 C 
ENDBRANCH   1   4
BRANCH   1  12
ATOM     12  N   UNL     1       2.234  -7.117  46.837  1.00  0.00    -0.278 N 
ATOM     13  H   UNL     1       2.759  -7.886  47.249  1.00  0.00     0.180 HD
BRANCH  12  14
ATOM     14  C   UNL     1       0.854  -6.983  47.168  1.00  0.00     0.067 A 
ATOM     15  C   UNL     1       0.047  -8.118  47.182  1.00  0.00     0.030 A 
ATOM     16  C   UNL     1       0.263  -5.760  47.471  1.00  0.00     0.137 A 
ATOM     17  C   UNL     1      -1.308  -7.991  47.479  1.00  0.00     0.022 A 
ATOM     18  N   UNL     1      -1.052  -5.609  47.759  1.00  0.00    -0.263 NA
ATOM     19  C   UNL     1      -1.807  -6.728  47.756  1.00  0.00     0.111 A 
ENDBRANCH  12  14
ENDBRANCH   1  12
TORSDOF 3
ENDMDL
MODEL 6
REMARK VINA RESULT:    -8.265      6.373      7.179
REMARK INTER + INTRA:          -9.896
REMARK INTER:                  -9.525
REMARK INTRA:                  -0.371
REMARK UNBOUND:                -0.181
REMARK SMILES Cc1ccc(S(=O)(=O)Nc2cccnc2)cc1C
REMARK SMILES IDX 6 1 7 2 8 3 5 4 2 5 3 6 17 7 4 8 16 9 1 10 18 11 9 12 10 14
REMARK SMILES IDX 11 15 15 16 12 17 14 18 13 19
REMARK H PARENT 9 13
ROOT
ATOM      1  S   UNL     1       1.781 -10.245  47.877  1.00  0.00     0.261 S 
ATOM      2  O   UNL     1       2.128 -11.454  47.163  1.00  0.00    -0.201 OA
ATOM      3  O   UNL     1       1.220 -10.294  49.210  1.00  0.00    -0.201 OA
ENDROOT
BRANCH   1   4
ATOM      4  C   UNL     1       0.673  -9.294  46.862  1.00  0.00     0.088 A 
ATOM      5  C   UNL     1      -1.051  -7.788  45.252  1.00  0.00    -0.048 A 
ATOM      6  C   UNL     1      -1.209  -7.808  46.648  1.00  0.00     0.005 A 
ATOM      7  C   UNL     1      -0.001  -8.522  44.660  1.00  0.00    -0.047 A 
ATOM      8  C   UNL     1      -0.348  -8.553  47.455  1.00  0.00     0.022 A 
ATOM      9  C   UNL     1       0.860  -9.271  45.476  1.00  0.00     0.026 A 
ATOM     10  C   UNL     1      -1.998  -6.965  44.420  1.00  0.00     0.044 C 
ATOM     11  C   UNL     1       0.220  -8.510  43.171  1.00  0.00     0.044 C 
ENDBRANCH   1   4
BRANCH   1  12
ATOM     12  N   UNL     1       3.140  -9.250  47.982  1.00  0.00    -0.278 N 
ATOM     13  H   UNL     1       2.892  -8.268  48.083  1.00  0.00     0.180 HD
BRANCH  12  14
ATOM     14  C   UNL     1       4.308  -9.581  47.235  1.00  0.00     0.067 A 
ATOM     15  C   UNL     1       4.576  -8.892  46.055  1.00  0.00     0.030 A 
ATOM     16  C   UNL     1       5.199 -10.577  47.624  1.00  0.00     0.137 A 
ATOM     17  C   UNL     1       5.702  -9.229  45.306  1.00  0.00     0.022 A 
ATOM     18  N   UNL     1       6.298 -10.925  46.913  1.00  0.00    -0.263 NA
ATOM     19  C   UNL     1       6.524 -10.243  45.771  1.00  0.00     0.111 A 
ENDBRANCH  12  14
ENDBRANCH   1  12
TORSDOF 3
ENDMDL
MODEL 7
REMARK VINA RESULT:    -8.243      2.041      5.813
REMARK INTER + INTRA:          -9.870
REMARK INTER:                 -10.241
REMARK INTRA:                   0.371
REMARK UNBOUND:                -0.181
REMARK SMILES Cc1ccc(S(=O)(=O)Nc2cccnc2)cc1C
REMARK SMILES IDX 6 1 7 2 8 3 5 4 2 5 3 6 17 7 4 8 16 9 1 10 18 11 9 12 10 14
REMARK SMILES IDX 11 15 15 16 12 17 14 18 13 19
REMARK H PARENT 9 13
ROOT
ATOM      1  S   UNL     1       0.924 -17.327  47.655  1.00  0.00     0.261 S 
ATOM      2  O   UNL     1      -0.476 -17.359  47.292  1.00  0.00    -0.201 OA
ATOM      3  O   UNL     1       1.545 -18.432  48.353  1.00  0.00    -0.201 OA
ENDROOT
BRANCH   1   4
ATOM      4  C   UNL     1       1.223 -15.854  48.606  1.00  0.00     0.088 A 
ATOM      5  C   UNL     1       1.719 -13.543  50.103  1.00  0.00    -0.048 A 
ATOM      6  C   UNL     1       0.701 -14.435  50.479  1.00  0.00     0.005 A 
ATOM      7  C   UNL     1       2.509 -13.826  48.968  1.00  0.00    -0.047 A 
ATOM      8  C   UNL     1       0.455 -15.592  49.739  1.00  0.00     0.022 A 
ATOM      9  C   UNL     1       2.254 -14.989  48.226  1.00  0.00     0.026 A 
ATOM     10  C   UNL     1       1.955 -12.310  50.934  1.00  0.00     0.044 C 
ATOM     11  C   UNL     1       3.624 -12.909  48.542  1.00  0.00     0.044 C 
ENDBRANCH   1   4
BRANCH   1  12
ATOM     12  N   UNL     1       1.853 -17.072  46.268  1.00  0.00    -0.278 N 
ATOM     13  H   UNL     1       2.708 -16.558  46.467  1.00  0.00     0.180 HD
BRANCH  12  14
ATOM     14  C   UNL     1       1.200 -16.849  45.022  1.00  0.00     0.067 A 
ATOM     15  C   UNL     1      -0.024 -16.183  45.007  1.00  0.00     0.030 A 
ATOM     16  C   UNL     1       1.724 -17.274  43.805  1.00  0.00     0.137 A 
ATOM     17  C   UNL     1      -0.680 -15.984  43.794  1.00  0.00     0.022 A 
ATOM     18  N   UNL     1       1.105 -17.096  42.613  1.00  0.00    -0.263 NA
ATOM     19  C   UNL     1      -0.082 -16.455  42.636  1.00  0.00     0.111 A 
ENDBRANCH  12  14
ENDBRANCH   1  12
TORSDOF 3
ENDMDL
MODEL 8
REMARK VINA RESULT:    -8.231      4.535      7.109
REMARK INTER + INTRA:          -9.856
REMARK INTER:                  -9.421
REMARK INTRA:                  -0.435
REMARK UNBOUND:                -0.181
REMARK SMILES Cc1ccc(S(=O)(=O)Nc2cccnc2)cc1C
REMARK SMILES IDX 6 1 7 2 8 3 5 4 2 5 3 6 17 7 4 8 16 9 1 10 18 11 9 12 10 14
REMARK SMILES IDX 11 15 15 16 12 17 14 18 13 19
REMARK H PARENT 9 13
ROOT
ATOM      1  S   UNL     1       3.777 -10.076  48.940  1.00  0.00     0.261 S 
ATOM      2  O   UNL     1       3.425  -8.742  49.372  1.00  0.00    -0.201 OA
ATOM      3  O   UNL     1       4.448 -11.002  49.828  1.00  0.00    -0.201 OA
ENDROOT
BRANCH   1   4
ATOM      4  C   UNL     1       4.754  -9.947  47.460  1.00  0.00     0.088 A 
ATOM      5  C   UNL     1       6.271  -9.739  45.118  1.00  0.00    -0.048 A 
ATOM      6  C   UNL     1       6.490 -10.792  46.022  1.00  0.00     0.005 A 
ATOM      7  C   UNL     1       5.264  -8.787  45.387  1.00  0.00    -0.047 A 
ATOM      8  C   UNL     1       5.732 -10.902  47.188  1.00  0.00     0.022 A 
ATOM      9  C   UNL     1       4.507  -8.903  46.562  1.00  0.00     0.026 A 
ATOM     10  C   UNL     1       7.107  -9.661  43.868  1.00  0.00     0.044 C 
ATOM     11  C   UNL     1       4.980  -7.657  44.436  1.00  0.00     0.044 C 
ENDBRANCH   1   4
BRANCH   1  12
ATOM     12  N   UNL     1       2.388 -10.872  48.403  1.00  0.00    -0.278 N 
ATOM     13  H   UNL     1       1.559 -10.285  48.467  1.00  0.00     0.180 HD
BRANCH  12  14
ATOM     14  C   UNL     1       2.250 -12.271  48.639  1.00  0.00     0.067 A 
ATOM     15  C   UNL     1       2.777 -13.169  47.714  1.00  0.00     0.030 A 
ATOM     16  C   UNL     1       1.600 -12.790  49.754  1.00  0.00     0.137 A 
ATOM     17  C   UNL     1       2.624 -14.538  47.926  1.00  0.00     0.022 A 
ATOM     18  N   UNL     1       1.434 -14.116  49.981  1.00  0.00    -0.263 NA
ATOM     19  C   UNL     1       1.950 -14.958  49.062  1.00  0.00     0.111 A 
ENDBRANCH  12  14
ENDBRANCH   1  12
TORSDOF 3
ENDMDL
MODEL 9
REMARK VINA RESULT:    -8.193      6.155      7.507
REMARK INTER + INTRA:          -9.811
REMARK INTER:                  -9.580
REMARK INTRA:                  -0.231
REMARK UNBOUND:                -0.181
REMARK SMILES Cc1ccc(S(=O)(=O)Nc2cccnc2)cc1C
REMARK SMILES IDX 6 1 7 2 8 3 5 4 2 5 3 6 17 7 4 8 16 9 1 10 18 11 9 12 10 14
REMARK SMILES IDX 11 15 15 16 12 17 14 18 13 19
REMARK H PARENT 9 13
ROOT
ATOM      1  S   UNL     1       2.993  -9.852  48.996  1.00  0.00     0.261 S 
ATOM      2  O   UNL     1       2.696  -8.476  49.328  1.00  0.00    -0.201 OA
ATOM      3  O   UNL     1       3.431 -10.791  50.007  1.00  0.00    -0.201 OA
ENDROOT
BRANCH   1   4
ATOM      4  C   UNL     1       4.199  -9.866  47.689  1.00  0.00     0.088 A 
ATOM      5  C   UNL     1       6.078  -9.884  45.616  1.00  0.00    -0.048 A 
ATOM      6  C   UNL     1       6.068 -10.904  46.583  1.00  0.00     0.005 A 
ATOM      7  C   UNL     1       5.119  -8.850  45.684  1.00  0.00    -0.047 A 
ATOM      8  C   UNL     1       5.128 -10.902  47.614  1.00  0.00     0.022 A 
ATOM      9  C   UNL     1       4.179  -8.852  46.726  1.00  0.00     0.026 A 
ATOM     10  C   UNL     1       7.105  -9.928  44.516  1.00  0.00     0.044 C 
ATOM     11  C   UNL     1       5.079  -7.750  44.658  1.00  0.00     0.044 C 
ENDBRANCH   1   4
BRANCH   1  12
ATOM     12  N   UNL     1       1.641 -10.553  48.267  1.00  0.00    -0.278 N 
ATOM     13  H   UNL     1       1.801 -11.527  48.016  1.00  0.00     0.180 HD
BRANCH  12  14
ATOM     14  C   UNL     1       0.816  -9.761  47.418  1.00  0.00     0.067 A 
ATOM     15  C   UNL     1       1.069  -9.743  46.049  1.00  0.00     0.030 A 
ATOM     16  C   UNL     1      -0.238  -8.986  47.895  1.00  0.00     0.137 A 
ATOM     17  C   UNL     1       0.281  -8.950  45.217  1.00  0.00     0.022 A 
ATOM     18  N   UNL     1      -1.016  -8.204  47.109  1.00  0.00    -0.263 NA
ATOM     19  C   UNL     1      -0.738  -8.204  45.788  1.00  0.00     0.111 A 
ENDBRANCH  12  14
ENDBRANCH   1  12
TORSDOF 3
ENDMDL
MODEL 10
REMARK VINA RESULT:    -8.159      4.590      6.072
REMARK INTER + INTRA:          -9.771
REMARK INTER:                  -9.500
REMARK INTRA:                  -0.270
REMARK UNBOUND:                -0.181
REMARK SMILES Cc1ccc(S(=O)(=O)Nc2cccnc2)cc1C
REMARK SMILES IDX 6 1 7 2 8 3 5 4 2 5 3 6 17 7 4 8 16 9 1 10 18 11 9 12 10 14
REMARK SMILES IDX 11 15 15 16 12 17 14 18 13 19
REMARK H PARENT 9 13
ROOT
ATOM      1  S   UNL     1       3.720 -10.879  49.242  1.00  0.00     0.261 S 
ATOM      2  O   UNL     1       3.909 -10.506  47.857  1.00  0.00    -0.201 OA
ATOM      3  O   UNL     1       4.842 -11.003  50.148  1.00  0.00    -0.201 OA
ENDROOT
BRANCH   1   4
ATOM      4  C   UNL     1       2.817 -12.410  49.292  1.00  0.00     0.088 A 
ATOM      5  C   UNL     1       1.401 -14.821  49.397  1.00  0.00    -0.048 A 
ATOM      6  C   UNL     1       2.324 -14.576  48.366  1.00  0.00     0.005 A 
ATOM      7  C   UNL     1       1.200 -13.846  50.398  1.00  0.00    -0.047 A 
ATOM      8  C   UNL     1       3.036 -13.378  48.314  1.00  0.00     0.022 A 
ATOM      9  C   UNL     1       1.917 -12.642  50.339  1.00  0.00     0.026 A 
ATOM     10  C   UNL     1       0.659 -16.131  49.420  1.00  0.00     0.044 C 
ATOM     11  C   UNL     1       0.239 -14.075  51.533  1.00  0.00     0.044 C 
ENDBRANCH   1   4
BRANCH   1  12
ATOM     12  N   UNL     1       2.654  -9.790  49.970  1.00  0.00    -0.278 N 
ATOM     13  H   UNL     1       2.354 -10.104  50.891  1.00  0.00     0.180 HD
BRANCH  12  14
ATOM     14  C   UNL     1       1.726  -9.074  49.161  1.00  0.00     0.067 A 
ATOM     15  C   UNL     1       0.832  -9.785  48.363  1.00  0.00     0.030 A 
ATOM     16  C   UNL     1       1.673  -7.684  49.118  1.00  0.00     0.137 A 
ATOM     17  C   UNL     1      -0.061  -9.090  47.550  1.00  0.00     0.022 A 
ATOM     18  N   UNL     1       0.817  -6.985  48.334  1.00  0.00    -0.263 NA
ATOM     19  C   UNL     1      -0.029  -7.705  47.568  1.00  0.00     0.111 A 
ENDBRANCH  12  14
ENDBRANCH   1  12
TORSDOF 3
ENDMDL
