MODEL 1
REMARK VINA RESULT:    -9.620      0.000      0.000
REMARK INTER + INTRA:         -12.330
REMARK INTER:                 -12.432
REMARK INTRA:                   0.102
REMARK UNBOUND:                 0.102
REMARK SMILES COc1ccc(S(=O)(=O)N2CC[NH+](Cc3cccc(Cl)c3)CC2)cc1
REMARK SMILES IDX 10 1 11 2 12 3 13 4 22 5 23 6 7 8 8 9 9 10 6 11 3 12 4 13
REMARK SMILES IDX 25 14 5 15 24 16 2 17 1 18 14 19 15 20 16 21 21 22 17 23
REMARK SMILES IDX 19 24 18 25 20 26
REMARK H PARENT 13 7
ROOT
ATOM      1  N   UNL     1       3.402 -11.447  48.499  1.00  0.00    -0.187 NA
ATOM      2  C   UNL     1       2.227 -11.415  47.573  1.00  0.00     0.164 C 
ATOM      3  C   UNL     1       1.194 -10.335  47.953  1.00  0.00     0.279 C 
ATOM      4  N   UNL     1       1.851  -8.971  48.145  1.00  0.00    -0.329 N 
ATOM      5  C   UNL     1       3.044  -9.039  49.101  1.00  0.00     0.279 C 
ATOM      6  C   UNL     1       4.045 -10.103  48.622  1.00  0.00     0.164 C 
ATOM      7  H   UNL     1       2.215  -8.672  47.232  1.00  0.00     0.348 HD
ENDROOT
BRANCH   1   8
ATOM      8  S   UNL     1       3.165 -12.246  50.000  1.00  0.00     0.243 S 
ATOM      9  O   UNL     1       4.459 -12.690  50.460  1.00  0.00    -0.207 OA
ATOM     10  O   UNL     1       2.359 -11.337  50.789  1.00  0.00    -0.207 OA
BRANCH   8  11
ATOM     11  C   UNL     1       2.202 -13.658  49.555  1.00  0.00     0.082 A 
ATOM     12  C   UNL     1       0.674 -15.898  48.895  1.00  0.00     0.118 A 
ATOM     13  C   UNL     1       1.807 -15.565  48.143  1.00  0.00     0.048 A 
ATOM     14  C   UNL     1       0.308 -15.098  49.979  1.00  0.00     0.048 A 
ATOM     15  C   UNL     1       2.573 -14.443  48.463  1.00  0.00     0.025 A 
ATOM     16  C   UNL     1       1.070 -13.974  50.311  1.00  0.00     0.025 A 
BRANCH  12  17
ATOM     17  O   UNL     1       0.024 -17.022  48.470  1.00  0.00    -0.497 OA
ATOM     18  C   UNL     1       0.040 -17.292  47.074  1.00  0.00     0.278 C 
ENDBRANCH  12  17
ENDBRANCH   8  11
ENDBRANCH   1   8
BRANCH   4  19
ATOM     19  C   UNL     1       0.831  -7.939  48.575  1.00  0.00     0.299 C 
BRANCH  19  20
ATOM     20  C   UNL     1      -0.060  -7.487  47.451  1.00  0.00     0.008 A 
ATOM     21  C   UNL     1      -1.434  -7.288  47.662  1.00  0.00     0.009 A 
ATOM     22  C   UNL     1       0.473  -7.238  46.175  1.00  0.00     0.030 A 
ATOM     23  C   UNL     1      -2.254  -6.843  46.621  1.00  0.00     0.002 A 
ATOM     24  C   UNL     1      -0.353  -6.792  45.142  1.00  0.00     0.041 A 
ATOM     25  C   UNL     1      -1.713  -6.592  45.361  1.00  0.00     0.020 A 
ATOM     26  Cl  UNL     1       0.323  -6.483  43.592  1.00  0.00    -0.084 Cl
ENDBRANCH  19  20
ENDBRANCH   4  19
TORSDOF 5
ENDMDL
MODEL 2
REMARK VINA RESULT:    -9.584      1.380      2.197
REMARK INTER + INTRA:         -12.283
REMARK INTER:                 -12.116
REMARK INTRA:                  -0.168
REMARK UNBOUND:                 0.102
REMARK SMILES COc1ccc(S(=O)(=O)N2CC[NH+](Cc3cccc(Cl)c3)CC2)cc1
REMARK SMILES IDX 10 1 11 2 12 3 13 4 22 5 23 6 7 8 8 9 9 10 6 11 3 12 4 13
REMARK SMILES IDX 25 14 5 15 24 16 2 17 1 18 14 19 15 20 16 21 21 22 17 23
REMARK SMILES IDX 19 24 18 25 20 26
REMARK H PARENT 13 7
ROOT
ATOM      1  N   UNL     1       2.358 -11.092  49.556  1.00  0.00    -0.187 NA
ATOM      2  C   UNL     1       2.932  -9.723  49.738  1.00  0.00     0.164 C 
ATOM      3  C   UNL     1       3.307  -9.049  48.402  1.00  0.00     0.279 C 
ATOM      4  N   UNL     1       2.152  -9.093  47.406  1.00  0.00    -0.329 N 
ATOM      5  C   UNL     1       1.592 -10.509  47.241  1.00  0.00     0.279 C 
ATOM      6  C   UNL     1       1.200 -11.085  48.611  1.00  0.00     0.164 C 
ATOM      7  H   UNL     1       1.393  -8.514  47.785  1.00  0.00     0.348 HD
ENDROOT
BRANCH   1   8
ATOM      8  S   UNL     1       3.483 -12.357  49.269  1.00  0.00     0.243 S 
ATOM      9  O   UNL     1       4.166 -12.053  48.035  1.00  0.00    -0.207 OA
ATOM     10  O   UNL     1       4.209 -12.506  50.513  1.00  0.00    -0.207 OA
BRANCH   8  11
ATOM     11  C   UNL     1       2.447 -13.764  49.015  1.00  0.00     0.082 A 
ATOM     12  C   UNL     1       0.814 -15.999  48.657  1.00  0.00     0.118 A 
ATOM     13  C   UNL     1       1.723 -15.617  47.663  1.00  0.00     0.048 A 
ATOM     14  C   UNL     1       0.725 -15.251  49.833  1.00  0.00     0.048 A 
ATOM     15  C   UNL     1       2.538 -14.497  47.832  1.00  0.00     0.025 A 
ATOM     16  C   UNL     1       1.540 -14.129  50.014  1.00  0.00     0.025 A 
BRANCH  12  17
ATOM     17  O   UNL     1       0.084 -17.115  48.358  1.00  0.00    -0.497 OA
ATOM     18  C   UNL     1      -0.248 -17.326  46.991  1.00  0.00     0.278 C 
ENDBRANCH  12  17
ENDBRANCH   8  11
ENDBRANCH   1   8
BRANCH   4  19
ATOM     19  C   UNL     1       2.558  -8.482  46.083  1.00  0.00     0.299 C 
BRANCH  19  20
ATOM     20  C   UNL     1       1.404  -7.867  45.339  1.00  0.00     0.008 A 
ATOM     21  C   UNL     1       1.410  -7.798  43.937  1.00  0.00     0.009 A 
ATOM     22  C   UNL     1       0.292  -7.367  46.037  1.00  0.00     0.030 A 
ATOM     23  C   UNL     1       0.324  -7.250  43.248  1.00  0.00     0.002 A 
ATOM     24  C   UNL     1      -0.789  -6.823  45.341  1.00  0.00     0.041 A 
ATOM     25  C   UNL     1      -0.779  -6.764  43.951  1.00  0.00     0.020 A 
ATOM     26  Cl  UNL     1      -2.145  -6.229  46.216  1.00  0.00    -0.084 Cl
ENDBRANCH  19  20
ENDBRANCH   4  19
TORSDOF 5
ENDMDL
MODEL 3
REMARK VINA RESULT:    -9.322      3.309      4.210
REMARK INTER + INTRA:         -11.945
REMARK INTER:                 -11.990
REMARK INTRA:                   0.046
REMARK UNBOUND:                 0.102
REMARK SMILES COc1ccc(S(=O)(=O)N2CC[NH+](Cc3cccc(Cl)c3)CC2)cc1
REMARK SMILES IDX 10 1 11 2 12 3 13 4 22 5 23 6 7 8 8 9 9 10 6 11 3 12 4 13
REMARK SMILES IDX 25 14 5 15 24 16 2 17 1 18 14 19 15 20 16 21 21 22 17 23
REMARK SMILES IDX 19 24 18 25 20 26
REMARK H PARENT 13 7
ROOT
ATOM      1  N   UNL     1       1.917 -11.275  49.473  1.00  0.00    -0.187 NA
ATOM      2  C   UNL     1       2.366  -9.901  49.856  1.00  0.00     0.164 C 
ATOM      3  C   UNL     1       3.801  -9.586  49.385  1.00  0.00     0.279 C 
ATOM      4  N   UNL     1       3.985  -9.891  47.901  1.00  0.00    -0.329 N 
ATOM      5  C   UNL     1       3.520 -11.305  47.544  1.00  0.00     0.279 C 
ATOM      6  C   UNL     1       2.069 -11.517  48.006  1.00  0.00     0.164 C 
ATOM      7  H   UNL     1       3.390  -9.239  47.375  1.00  0.00     0.348 HD
ENDROOT
BRANCH   1   8
ATOM      8  S   UNL     1       2.489 -12.563  50.453  1.00  0.00     0.243 S 
ATOM      9  O   UNL     1       3.916 -12.652  50.258  1.00  0.00    -0.207 OA
ATOM     10  O   UNL     1       1.924 -12.320  51.763  1.00  0.00    -0.207 OA
BRANCH   8  11
ATOM     11  C   UNL     1       1.726 -13.984  49.733  1.00  0.00     0.082 A 
ATOM     12  C   UNL     1       0.510 -16.243  48.635  1.00  0.00     0.118 A 
ATOM     13  C   UNL     1       1.682 -15.724  48.072  1.00  0.00     0.048 A 
ATOM     14  C   UNL     1      -0.052 -15.620  49.751  1.00  0.00     0.048 A 
ATOM     15  C   UNL     1       2.292 -14.591  48.612  1.00  0.00     0.025 A 
ATOM     16  C   UNL     1       0.553 -14.487  50.301  1.00  0.00     0.025 A 
BRANCH  12  17
ATOM     17  O   UNL     1       0.026 -17.356  48.007  1.00  0.00    -0.497 OA
ATOM     18  C   UNL     1       0.280 -17.475  46.612  1.00  0.00     0.278 C 
ENDBRANCH  12  17
ENDBRANCH   8  11
ENDBRANCH   1   8
BRANCH   4  19
ATOM     19  C   UNL     1       5.413  -9.633  47.471  1.00  0.00     0.299 C 
BRANCH  19  20
ATOM     20  C   UNL     1       5.531  -9.248  46.021  1.00  0.00     0.008 A 
ATOM     21  C   UNL     1       4.811  -8.158  45.508  1.00  0.00     0.009 A 
ATOM     22  C   UNL     1       6.381  -9.965  45.162  1.00  0.00     0.030 A 
ATOM     23  C   UNL     1       4.945  -7.788  44.167  1.00  0.00     0.002 A 
ATOM     24  C   UNL     1       6.509  -9.587  43.824  1.00  0.00     0.041 A 
ATOM     25  C   UNL     1       5.796  -8.501  43.324  1.00  0.00     0.020 A 
ATOM     26  Cl  UNL     1       7.563 -10.471  42.793  1.00  0.00    -0.084 Cl
ENDBRANCH  19  20
ENDBRANCH   4  19
TORSDOF 5
ENDMDL
MODEL 4
REMARK VINA RESULT:    -8.848      3.273      5.001
REMARK INTER + INTRA:         -11.333
REMARK INTER:                 -11.474
REMARK INTRA:                   0.142
REMARK UNBOUND:                 0.102
REMARK SMILES COc1ccc(S(=O)(=O)N2CC[NH+](Cc3cccc(Cl)c3)CC2)cc1
REMARK SMILES IDX 10 1 11 2 12 3 13 4 22 5 23 6 7 8 8 9 9 10 6 11 3 12 4 13
REMARK SMILES IDX 25 14 5 15 24 16 2 17 1 18 14 19 15 20 16 21 21 22 17 23
REMARK SMILES IDX 19 24 18 25 20 26
REMARK H PARENT 13 7
ROOT
ATOM      1  N   UNL     1       3.114 -11.229  48.830  1.00  0.00    -0.187 NA
ATOM      2  C   UNL     1       2.014 -10.871  49.778  1.00  0.00     0.164 C 
ATOM      3  C   UNL     1       1.180  -9.665  49.299  1.00  0.00     0.279 C 
ATOM      4  N   UNL     1       0.704  -9.846  47.861  1.00  0.00    -0.329 N 
ATOM      5  C   UNL     1       1.854 -10.207  46.918  1.00  0.00     0.279 C 
ATOM      6  C   UNL     1       2.600 -11.444  47.444  1.00  0.00     0.164 C 
ATOM      7  H   UNL     1       0.048 -10.636  47.849  1.00  0.00     0.348 HD
ENDROOT
BRANCH   1   8
ATOM      8  S   UNL     1       4.529 -10.260  48.906  1.00  0.00     0.243 S 
ATOM      9  O   UNL     1       4.109  -8.881  48.851  1.00  0.00    -0.207 OA
ATOM     10  O   UNL     1       5.278 -10.773  50.033  1.00  0.00    -0.207 OA
BRANCH   8  11
ATOM     11  C   UNL     1       5.369 -10.660  47.404  1.00  0.00     0.082 A 
ATOM     12  C   UNL     1       6.722 -11.321  45.055  1.00  0.00     0.118 A 
ATOM     13  C   UNL     1       6.311 -10.003  45.291  1.00  0.00     0.048 A 
ATOM     14  C   UNL     1       6.446 -12.308  46.002  1.00  0.00     0.048 A 
ATOM     15  C   UNL     1       5.629  -9.667  46.461  1.00  0.00     0.025 A 
ATOM     16  C   UNL     1       5.766 -11.980  47.179  1.00  0.00     0.025 A 
BRANCH  12  17
ATOM     17  O   UNL     1       7.381 -11.504  43.872  1.00  0.00    -0.497 OA
ATOM     18  C   UNL     1       7.436 -10.396  42.982  1.00  0.00     0.278 C 
ENDBRANCH  12  17
ENDBRANCH   8  11
ENDBRANCH   1   8
BRANCH   4  19
ATOM     19  C   UNL     1      -0.061  -8.628  47.390  1.00  0.00     0.299 C 
BRANCH  19  20
ATOM     20  C   UNL     1       0.252  -8.249  45.968  1.00  0.00     0.008 A 
ATOM     21  C   UNL     1      -0.311  -8.960  44.896  1.00  0.00     0.009 A 
ATOM     22  C   UNL     1       1.101  -7.165  45.691  1.00  0.00     0.030 A 
ATOM     23  C   UNL     1      -0.038  -8.588  43.577  1.00  0.00     0.002 A 
ATOM     24  C   UNL     1       1.367  -6.799  44.370  1.00  0.00     0.041 A 
ATOM     25  C   UNL     1       0.800  -7.505  43.313  1.00  0.00     0.020 A 
ATOM     26  Cl  UNL     1       2.399  -5.461  44.054  1.00  0.00    -0.084 Cl
ENDBRANCH  19  20
ENDBRANCH   4  19
TORSDOF 5
ENDMDL
MODEL 5
REMARK VINA RESULT:    -8.775      4.302      7.472
REMARK INTER + INTRA:         -11.239
REMARK INTER:                 -11.370
REMARK INTRA:                   0.132
REMARK UNBOUND:                 0.102
REMARK SMILES COc1ccc(S(=O)(=O)N2CC[NH+](Cc3cccc(Cl)c3)CC2)cc1
REMARK SMILES IDX 10 1 11 2 12 3 13 4 22 5 23 6 7 8 8 9 9 10 6 11 3 12 4 13
REMARK SMILES IDX 25 14 5 15 24 16 2 17 1 18 14 19 15 20 16 21 21 22 17 23
REMARK SMILES IDX 19 24 18 25 20 26
REMARK H PARENT 13 7
ROOT
ATOM      1  N   UNL     1       2.949 -11.869  48.872  1.00  0.00    -0.187 NA
ATOM      2  C   UNL     1       2.419 -12.196  47.512  1.00  0.00     0.164 C 
ATOM      3  C   UNL     1       2.362 -13.713  47.241  1.00  0.00     0.279 C 
ATOM      4  N   UNL     1       1.648 -14.459  48.364  1.00  0.00    -0.329 N 
ATOM      5  C   UNL     1       2.218 -14.105  49.740  1.00  0.00     0.279 C 
ATOM      6  C   UNL     1       2.193 -12.581  49.946  1.00  0.00     0.164 C 
ATOM      7  H   UNL     1       0.666 -14.157  48.361  1.00  0.00     0.348 HD
ENDROOT
BRANCH   1   8
ATOM      8  S   UNL     1       4.655 -11.935  49.060  1.00  0.00     0.243 S 
ATOM      9  O   UNL     1       4.992 -11.138  50.214  1.00  0.00    -0.207 OA
ATOM     10  O   UNL     1       4.987 -13.343  48.996  1.00  0.00    -0.207 OA
BRANCH   8  11
ATOM     11  C   UNL     1       5.249 -11.120  47.611  1.00  0.00     0.082 A 
ATOM     12  C   UNL     1       6.149  -9.813  45.315  1.00  0.00     0.118 A 
ATOM     13  C   UNL     1       6.575 -11.115  45.603  1.00  0.00     0.048 A 
ATOM     14  C   UNL     1       5.272  -9.166  46.187  1.00  0.00     0.048 A 
ATOM     15  C   UNL     1       6.134 -11.773  46.752  1.00  0.00     0.025 A 
ATOM     16  C   UNL     1       4.821  -9.818  47.340  1.00  0.00     0.025 A 
BRANCH  12  17
ATOM     17  O   UNL     1       6.657  -9.295  44.157  1.00  0.00    -0.497 OA
ATOM     18  C   UNL     1       7.936  -9.763  43.743  1.00  0.00     0.278 C 
ENDBRANCH  12  17
ENDBRANCH   8  11
ENDBRANCH   1   8
BRANCH   4  19
ATOM     19  C   UNL     1       1.654 -15.950  48.109  1.00  0.00     0.299 C 
BRANCH  19  20
ATOM     20  C   UNL     1       1.086 -16.321  46.767  1.00  0.00     0.008 A 
ATOM     21  C   UNL     1      -0.299 -16.468  46.591  1.00  0.00     0.009 A 
ATOM     22  C   UNL     1       1.933 -16.509  45.662  1.00  0.00     0.030 A 
ATOM     23  C   UNL     1      -0.825 -16.787  45.336  1.00  0.00     0.002 A 
ATOM     24  C   UNL     1       1.399 -16.826  44.411  1.00  0.00     0.041 A 
ATOM     25  C   UNL     1       0.024 -16.963  44.244  1.00  0.00     0.020 A 
ATOM     26  Cl  UNL     1       2.454 -17.038  43.071  1.00  0.00    -0.084 Cl
ENDBRANCH  19  20
ENDBRANCH   4  19
TORSDOF 5
ENDMDL
MODEL 6
REMARK VINA RESULT:    -8.654      3.125      7.004
REMARK INTER + INTRA:         -11.082
REMARK INTER:                 -11.276
REMARK INTRA:                   0.195
REMARK UNBOUND:                 0.102
REMARK SMILES COc1ccc(S(=O)(=O)N2CC[NH+](Cc3cccc(Cl)c3)CC2)cc1
REMARK SMILES IDX 10 1 11 2 12 3 13 4 22 5 23 6 7 8 8 9 9 10 6 11 3 12 4 13
REMARK SMILES IDX 25 14 5 15 24 16 2 17 1 18 14 19 15 20 16 21 21 22 17 23
REMARK SMILES IDX 19 24 18 25 20 26
REMARK H PARENT 13 7
ROOT
ATOM      1  N   UNL     1       3.847 -12.005  49.413  1.00  0.00    -0.187 NA
ATOM      2  C   UNL     1       2.468 -12.570  49.288  1.00  0.00     0.164 C 
ATOM      3  C   UNL     1       2.286 -13.433  48.023  1.00  0.00     0.279 C 
ATOM      4  N   UNL     1       3.385 -14.484  47.896  1.00  0.00    -0.329 N 
ATOM      5  C   UNL     1       4.782 -13.871  48.023  1.00  0.00     0.279 C 
ATOM      6  C   UNL     1       4.891 -13.071  49.331  1.00  0.00     0.164 C 
ATOM      7  H   UNL     1       3.275 -15.142  48.677  1.00  0.00     0.348 HD
ENDROOT
BRANCH   1   8
ATOM      8  S   UNL     1       4.191 -10.620  48.457  1.00  0.00     0.243 S 
ATOM      9  O   UNL     1       4.995  -9.732  49.260  1.00  0.00    -0.207 OA
ATOM     10  O   UNL     1       4.677 -11.142  47.198  1.00  0.00    -0.207 OA
BRANCH   8  11
ATOM     11  C   UNL     1       2.599  -9.892  48.221  1.00  0.00     0.082 A 
ATOM     12  C   UNL     1       0.075  -8.746  47.892  1.00  0.00     0.118 A 
ATOM     13  C   UNL     1       0.624  -9.555  46.890  1.00  0.00     0.048 A 
ATOM     14  C   UNL     1       0.802  -8.511  49.061  1.00  0.00     0.048 A 
ATOM     15  C   UNL     1       1.888 -10.127  47.045  1.00  0.00     0.025 A 
ATOM     16  C   UNL     1       2.068  -9.081  49.227  1.00  0.00     0.025 A 
BRANCH  12  17
ATOM     17  O   UNL     1      -1.169  -8.258  47.607  1.00  0.00    -0.497 OA
ATOM     18  C   UNL     1      -1.352  -7.654  46.332  1.00  0.00     0.278 C 
ENDBRANCH  12  17
ENDBRANCH   8  11
ENDBRANCH   1   8
BRANCH   4  19
ATOM     19  C   UNL     1       3.224 -15.280  46.620  1.00  0.00     0.299 C 
BRANCH  19  20
ATOM     20  C   UNL     1       1.880 -15.947  46.507  1.00  0.00     0.008 A 
ATOM     21  C   UNL     1       1.329 -16.639  47.597  1.00  0.00     0.009 A 
ATOM     22  C   UNL     1       1.146 -15.872  45.311  1.00  0.00     0.030 A 
ATOM     23  C   UNL     1       0.069 -17.235  47.496  1.00  0.00     0.002 A 
ATOM     24  C   UNL     1      -0.113 -16.469  45.219  1.00  0.00     0.041 A 
ATOM     25  C   UNL     1      -0.655 -17.147  46.307  1.00  0.00     0.020 A 
ATOM     26  Cl  UNL     1      -0.998 -16.354  43.751  1.00  0.00    -0.084 Cl
ENDBRANCH  19  20
ENDBRANCH   4  19
TORSDOF 5
ENDMDL
MODEL 7
REMARK VINA RESULT:    -8.587      3.565      7.781
REMARK INTER + INTRA:         -10.995
REMARK INTER:                 -11.061
REMARK INTRA:                   0.066
REMARK UNBOUND:                 0.102
REMARK SMILES COc1ccc(S(=O)(=O)N2CC[NH+](Cc3cccc(Cl)c3)CC2)cc1
REMARK SMILES IDX 10 1 11 2 12 3 13 4 22 5 23 6 7 8 8 9 9 10 6 11 3 12 4 13
REMARK SMILES IDX 25 14 5 15 24 16 2 17 1 18 14 19 15 20 16 21 21 22 17 23
REMARK SMILES IDX 19 24 18 25 20 26
REMARK H PARENT 13 7
ROOT
ATOM      1  N   UNL     1       5.027 -11.328  48.340  1.00  0.00    -0.187 NA
ATOM      2  C   UNL     1       5.274 -12.346  49.408  1.00  0.00     0.164 C 
ATOM      3  C   UNL     1       3.989 -13.081  49.842  1.00  0.00     0.279 C 
ATOM      4  N   UNL     1       3.225 -13.635  48.643  1.00  0.00    -0.329 N 
ATOM      5  C   UNL     1       2.986 -12.567  47.573  1.00  0.00     0.279 C 
ATOM      6  C   UNL     1       4.320 -11.921  47.165  1.00  0.00     0.164 C 
ATOM      7  H   UNL     1       3.809 -14.363  48.214  1.00  0.00     0.348 HD
ENDROOT
BRANCH   1   8
ATOM      8  S   UNL     1       4.378  -9.825  48.858  1.00  0.00     0.243 S 
ATOM      9  O   UNL     1       3.150 -10.105  49.560  1.00  0.00    -0.207 OA
ATOM     10  O   UNL     1       5.477  -9.144  49.509  1.00  0.00    -0.207 OA
BRANCH   8  11
ATOM     11  C   UNL     1       3.993  -9.011  47.338  1.00  0.00     0.082 A 
ATOM     12  C   UNL     1       3.423  -7.702  44.940  1.00  0.00     0.118 A 
ATOM     13  C   UNL     1       2.401  -7.987  45.854  1.00  0.00     0.048 A 
ATOM     14  C   UNL     1       4.734  -8.081  45.234  1.00  0.00     0.048 A 
ATOM     15  C   UNL     1       2.678  -8.647  47.052  1.00  0.00     0.025 A 
ATOM     16  C   UNL     1       5.022  -8.739  46.433  1.00  0.00     0.025 A 
BRANCH  12  17
ATOM     17  O   UNL     1       3.008  -7.050  43.813  1.00  0.00    -0.497 OA
ATOM     18  C   UNL     1       2.180  -5.908  43.993  1.00  0.00     0.278 C 
ENDBRANCH  12  17
ENDBRANCH   8  11
ENDBRANCH   1   8
BRANCH   4  19
ATOM     19  C   UNL     1       1.939 -14.300  49.084  1.00  0.00     0.299 C 
BRANCH  19  20
ATOM     20  C   UNL     1       1.623 -15.547  48.304  1.00  0.00     0.008 A 
ATOM     21  C   UNL     1       1.181 -16.708  48.956  1.00  0.00     0.009 A 
ATOM     22  C   UNL     1       1.747 -15.561  46.904  1.00  0.00     0.030 A 
ATOM     23  C   UNL     1       0.863 -17.856  48.225  1.00  0.00     0.002 A 
ATOM     24  C   UNL     1       1.426 -16.711  46.181  1.00  0.00     0.041 A 
ATOM     25  C   UNL     1       0.983 -17.857  46.836  1.00  0.00     0.020 A 
ATOM     26  Cl  UNL     1       1.574 -16.703  44.469  1.00  0.00    -0.084 Cl
ENDBRANCH  19  20
ENDBRANCH   4  19
TORSDOF 5
ENDMDL
MODEL 8
REMARK VINA RESULT:    -8.457      3.778      7.585
REMARK INTER + INTRA:         -10.827
REMARK INTER:                 -11.372
REMARK INTRA:                   0.546
REMARK UNBOUND:                 0.102
REMARK SMILES COc1ccc(S(=O)(=O)N2CC[NH+](Cc3cccc(Cl)c3)CC2)cc1
REMARK SMILES IDX 10 1 11 2 12 3 13 4 22 5 23 6 7 8 8 9 9 10 6 11 3 12 4 13
REMARK SMILES IDX 25 14 5 15 24 16 2 17 1 18 14 19 15 20 16 21 21 22 17 23
REMARK SMILES IDX 19 24 18 25 20 26
REMARK H PARENT 13 7
ROOT
ATOM      1  N   UNL     1       3.072 -12.051  49.939  1.00  0.00    -0.187 NA
ATOM      2  C   UNL     1       2.384 -12.562  51.165  1.00  0.00     0.164 C 
ATOM      3  C   UNL     1       1.153 -13.434  50.841  1.00  0.00     0.279 C 
ATOM      4  N   UNL     1       1.490 -14.531  49.835  1.00  0.00    -0.329 N 
ATOM      5  C   UNL     1       2.188 -13.972  48.592  1.00  0.00     0.279 C 
ATOM      6  C   UNL     1       3.427 -13.160  49.002  1.00  0.00     0.164 C 
ATOM      7  H   UNL     1       2.152 -15.173  50.286  1.00  0.00     0.348 HD
ENDROOT
BRANCH   1   8
ATOM      8  S   UNL     1       2.351 -10.695  49.172  1.00  0.00     0.243 S 
ATOM      9  O   UNL     1       1.157 -11.160  48.509  1.00  0.00    -0.207 OA
ATOM     10  O   UNL     1       2.292  -9.670  50.193  1.00  0.00    -0.207 OA
BRANCH   8  11
ATOM     11  C   UNL     1       3.543 -10.246  47.950  1.00  0.00     0.082 A 
ATOM     12  C   UNL     1       5.395  -9.529  45.988  1.00  0.00     0.118 A 
ATOM     13  C   UNL     1       5.683 -10.556  46.895  1.00  0.00     0.048 A 
ATOM     14  C   UNL     1       4.173  -8.859  46.072  1.00  0.00     0.048 A 
ATOM     15  C   UNL     1       4.765 -10.916  47.882  1.00  0.00     0.025 A 
ATOM     16  C   UNL     1       3.244  -9.214  47.055  1.00  0.00     0.025 A 
BRANCH  12  17
ATOM     17  O   UNL     1       6.383  -9.287  45.075  1.00  0.00    -0.497 OA
ATOM     18  C   UNL     1       7.142 -10.404  44.630  1.00  0.00     0.278 C 
ENDBRANCH  12  17
ENDBRANCH   8  11
ENDBRANCH   1   8
BRANCH   4  19
ATOM     19  C   UNL     1       0.258 -15.337  49.485  1.00  0.00     0.299 C 
BRANCH  19  20
ATOM     20  C   UNL     1       0.505 -16.349  48.400  1.00  0.00     0.008 A 
ATOM     21  C   UNL     1       1.273 -17.497  48.652  1.00  0.00     0.009 A 
ATOM     22  C   UNL     1      -0.046 -16.170  47.120  1.00  0.00     0.030 A 
ATOM     23  C   UNL     1       1.478 -18.448  47.648  1.00  0.00     0.002 A 
ATOM     24  C   UNL     1       0.163 -17.125  46.124  1.00  0.00     0.041 A 
ATOM     25  C   UNL     1       0.921 -18.264  46.384  1.00  0.00     0.020 A 
ATOM     26  Cl  UNL     1      -0.531 -16.891  44.569  1.00  0.00    -0.084 Cl
ENDBRANCH  19  20
ENDBRANCH   4  19
TORSDOF 5
ENDMDL
MODEL 9
REMARK VINA RESULT:    -8.373      4.565      8.940
REMARK INTER + INTRA:         -10.718
REMARK INTER:                 -10.922
REMARK INTRA:                   0.204
REMARK UNBOUND:                 0.102
REMARK SMILES COc1ccc(S(=O)(=O)N2CC[NH+](Cc3cccc(Cl)c3)CC2)cc1
REMARK SMILES IDX 10 1 11 2 12 3 13 4 22 5 23 6 7 8 8 9 9 10 6 11 3 12 4 13
REMARK SMILES IDX 25 14 5 15 24 16 2 17 1 18 14 19 15 20 16 21 21 22 17 23
REMARK SMILES IDX 19 24 18 25 20 26
REMARK H PARENT 13 7
ROOT
ATOM      1  N   UNL     1       0.413  -7.704  47.556  1.00  0.00    -0.187 NA
ATOM      2  C   UNL     1      -0.202  -9.067  47.570  1.00  0.00     0.164 C 
ATOM      3  C   UNL     1       0.846 -10.198  47.545  1.00  0.00     0.279 C 
ATOM      4  N   UNL     1       1.909 -10.003  48.623  1.00  0.00    -0.329 N 
ATOM      5  C   UNL     1       2.521  -8.601  48.577  1.00  0.00     0.279 C 
ATOM      6  C   UNL     1       1.413  -7.538  48.655  1.00  0.00     0.164 C 
ATOM      7  H   UNL     1       1.446 -10.098  49.535  1.00  0.00     0.348 HD
ENDROOT
BRANCH   1   8
ATOM      8  S   UNL     1       0.953  -7.128  46.031  1.00  0.00     0.243 S 
ATOM      9  O   UNL     1       2.075  -7.945  45.635  1.00  0.00    -0.207 OA
ATOM     10  O   UNL     1      -0.239  -7.043  45.216  1.00  0.00    -0.207 OA
BRANCH   8  11
ATOM     11  C   UNL     1       1.536  -5.502  46.400  1.00  0.00     0.082 A 
ATOM     12  C   UNL     1       2.413  -2.920  46.992  1.00  0.00     0.118 A 
ATOM     13  C   UNL     1       3.006  -3.651  45.956  1.00  0.00     0.048 A 
ATOM     14  C   UNL     1       1.379  -3.493  47.735  1.00  0.00     0.048 A 
ATOM     15  C   UNL     1       2.577  -4.945  45.658  1.00  0.00     0.025 A 
ATOM     16  C   UNL     1       0.939  -4.787  47.442  1.00  0.00     0.025 A 
BRANCH  12  17
ATOM     17  O   UNL     1       2.931  -1.667  47.169  1.00  0.00    -0.497 OA
ATOM     18  C   UNL     1       3.530  -1.048  46.037  1.00  0.00     0.278 C 
ENDBRANCH  12  17
ENDBRANCH   8  11
ENDBRANCH   1   8
BRANCH   4  19
ATOM     19  C   UNL     1       2.960 -11.089  48.544  1.00  0.00     0.299 C 
BRANCH  19  20
ATOM     20  C   UNL     1       2.412 -12.462  48.823  1.00  0.00     0.008 A 
ATOM     21  C   UNL     1       2.658 -13.524  47.939  1.00  0.00     0.009 A 
ATOM     22  C   UNL     1       1.658 -12.705  49.983  1.00  0.00     0.030 A 
ATOM     23  C   UNL     1       2.168 -14.804  48.215  1.00  0.00     0.002 A 
ATOM     24  C   UNL     1       1.174 -13.987  50.252  1.00  0.00     0.041 A 
ATOM     25  C   UNL     1       1.428 -15.037  49.374  1.00  0.00     0.020 A 
ATOM     26  Cl  UNL     1       0.265 -14.265  51.684  1.00  0.00    -0.084 Cl
ENDBRANCH  19  20
ENDBRANCH   4  19
TORSDOF 5
ENDMDL
MODEL 10
REMARK VINA RESULT:    -8.162      3.231      7.315
REMARK INTER + INTRA:         -10.446
REMARK INTER:                 -10.380
REMARK INTRA:                  -0.066
REMARK UNBOUND:                 0.102
REMARK SMILES COc1ccc(S(=O)(=O)N2CC[NH+](Cc3cccc(Cl)c3)CC2)cc1
REMARK SMILES IDX 10 1 11 2 12 3 13 4 22 5 23 6 7 8 8 9 9 10 6 11 3 12 4 13
REMARK SMILES IDX 25 14 5 15 24 16 2 17 1 18 14 19 15 20 16 21 21 22 17 23
REMARK SMILES IDX 19 24 18 25 20 26
REMARK H PARENT 13 7
ROOT
ATOM      1  N   UNL     1       3.670  -8.953  48.311  1.00  0.00    -0.187 NA
ATOM      2  C   UNL     1       4.662  -9.274  49.383  1.00  0.00     0.164 C 
ATOM      3  C   UNL     1       4.791 -10.789  49.646  1.00  0.00     0.279 C 
ATOM      4  N   UNL     1       5.024 -11.566  48.353  1.00  0.00    -0.329 N 
ATOM      5  C   UNL     1       3.990 -11.217  47.281  1.00  0.00     0.279 C 
ATOM      6  C   UNL     1       3.961  -9.697  47.048  1.00  0.00     0.164 C 
ATOM      7  H   UNL     1       5.942 -11.287  47.986  1.00  0.00     0.348 HD
ENDROOT
BRANCH   1   8
ATOM      8  S   UNL     1       2.016  -8.982  48.771  1.00  0.00     0.243 S 
ATOM      9  O   UNL     1       1.627 -10.367  48.889  1.00  0.00    -0.207 OA
ATOM     10  O   UNL     1       1.921  -8.077  49.896  1.00  0.00    -0.207 OA
BRANCH   8  11
ATOM     11  C   UNL     1       1.199  -8.278  47.373  1.00  0.00     0.082 A 
ATOM     12  C   UNL     1      -0.105  -7.130  45.189  1.00  0.00     0.118 A 
ATOM     13  C   UNL     1      -0.129  -8.517  45.381  1.00  0.00     0.048 A 
ATOM     14  C   UNL     1       0.580  -6.321  46.097  1.00  0.00     0.048 A 
ATOM     15  C   UNL     1       0.526  -9.098  46.467  1.00  0.00     0.025 A 
ATOM     16  C   UNL     1       1.237  -6.893  47.190  1.00  0.00     0.025 A 
BRANCH  12  17
ATOM     17  O   UNL     1      -0.791  -6.700  44.087  1.00  0.00    -0.497 OA
ATOM     18  C   UNL     1      -2.207  -6.623  44.194  1.00  0.00     0.278 C 
ENDBRANCH  12  17
ENDBRANCH   8  11
ENDBRANCH   1   8
BRANCH   4  19
ATOM     19  C   UNL     1       5.088 -13.053  48.624  1.00  0.00     0.299 C 
BRANCH  19  20
ATOM     20  C   UNL     1       3.732 -13.703  48.665  1.00  0.00     0.008 A 
ATOM     21  C   UNL     1       3.300 -14.526  47.613  1.00  0.00     0.009 A 
ATOM     22  C   UNL     1       2.884 -13.511  49.768  1.00  0.00     0.030 A 
ATOM     23  C   UNL     1       2.050 -15.149  47.668  1.00  0.00     0.002 A 
ATOM     24  C   UNL     1       1.637 -14.138  49.815  1.00  0.00     0.041 A 
ATOM     25  C   UNL     1       1.218 -14.957  48.771  1.00  0.00     0.020 A 
ATOM     26  Cl  UNL     1       0.621 -13.898  51.180  1.00  0.00    -0.084 Cl
ENDBRANCH  19  20
ENDBRANCH   4  19
TORSDOF 5
ENDMDL
