MODEL 1
REMARK VINA RESULT:    -9.190      0.000      0.000
REMARK INTER + INTRA:         -11.251
REMARK INTER:                 -10.802
REMARK INTRA:                  -0.449
REMARK UNBOUND:                -0.449
REMARK SMILES CCNC(=S)N1CCN(S(=O)(=O)c2ccc(C)c(C)c2)CC1
REMARK SMILES IDX 3 1 4 2 5 3 6 4 7 5 8 6 9 7 21 8 22 9 2 11 1 12 10 13 11 14
REMARK SMILES IDX 12 15 13 16 14 17 20 18 15 19 18 20 16 21 19 22 17 23
REMARK H PARENT 3 10
ROOT
ATOM      1  N   UNL     1       0.334 -15.613  49.396  1.00  0.00    -0.363 N 
ATOM      2  C   UNL     1       0.793 -14.550  50.126  1.00  0.00     0.169 C 
ATOM      3  S   UNL     1      -0.125 -14.108  51.455  1.00  0.00    -0.041 S 
ATOM      4  N   UNL     1       1.945 -13.922  49.693  1.00  0.00    -0.347 N 
ATOM      5  C   UNL     1       2.318 -13.890  48.267  1.00  0.00     0.135 C 
ATOM      6  C   UNL     1       2.779 -12.494  47.820  1.00  0.00     0.124 C 
ATOM      7  N   UNL     1       3.987 -12.039  48.586  1.00  0.00    -0.194 NA
ATOM      8  C   UNL     1       4.045 -12.597  49.980  1.00  0.00     0.124 C 
ATOM      9  C   UNL     1       2.655 -12.936  50.530  1.00  0.00     0.135 C 
ATOM     10  H   UNL     1      -0.568 -15.910  49.752  1.00  0.00     0.162 HD
ENDROOT
BRANCH   1  11
ATOM     11  C   UNL     1       1.177 -16.742  49.020  1.00  0.00     0.112 C 
ATOM     12  C   UNL     1       0.650 -17.423  47.773  1.00  0.00     0.027 C 
ENDBRANCH   1  11
BRANCH   7  13
ATOM     13  S   UNL     1       4.293 -10.358  48.518  1.00  0.00     0.243 S 
ATOM     14  O   UNL     1       5.197 -10.025  49.597  1.00  0.00    -0.207 OA
ATOM     15  O   UNL     1       3.012  -9.695  48.384  1.00  0.00    -0.207 OA
BRANCH  13  16
ATOM     16  C   UNL     1       5.189 -10.183  46.997  1.00  0.00     0.082 A 
ATOM     17  C   UNL     1       6.143 -11.143  46.662  1.00  0.00     0.022 A 
ATOM     18  C   UNL     1       4.949  -9.091  46.162  1.00  0.00     0.025 A 
ATOM     19  C   UNL     1       6.851 -11.016  45.469  1.00  0.00     0.005 A 
ATOM     20  C   UNL     1       5.658  -8.955  44.957  1.00  0.00    -0.047 A 
ATOM     21  C   UNL     1       6.617  -9.931  44.606  1.00  0.00    -0.048 A 
ATOM     22  C   UNL     1       5.384  -7.770  44.072  1.00  0.00     0.044 C 
ATOM     23  C   UNL     1       7.407  -9.825  43.329  1.00  0.00     0.044 C 
ENDBRANCH  13  16
ENDBRANCH   7  13
TORSDOF 3
ENDMDL
MODEL 2
REMARK VINA RESULT:    -9.094      3.135      7.324
REMARK INTER + INTRA:         -11.138
REMARK INTER:                 -10.713
REMARK INTRA:                  -0.425
REMARK UNBOUND:                -0.449
REMARK SMILES CCNC(=S)N1CCN(S(=O)(=O)c2ccc(C)c(C)c2)CC1
REMARK SMILES IDX 3 1 4 2 5 3 6 4 7 5 8 6 9 7 21 8 22 9 2 11 1 12 10 13 11 14
REMARK SMILES IDX 12 15 13 16 14 17 20 18 15 19 18 20 16 21 19 22 17 23
REMARK H PARENT 3 10
ROOT
ATOM      1  N   UNL     1       1.857  -6.053  45.161  1.00  0.00    -0.363 N 
ATOM      2  C   UNL     1       1.460  -6.718  46.289  1.00  0.00     0.169 C 
ATOM      3  S   UNL     1       0.439  -5.884  47.324  1.00  0.00    -0.041 S 
ATOM      4  N   UNL     1       1.951  -7.994  46.491  1.00  0.00    -0.347 N 
ATOM      5  C   UNL     1       3.267  -8.405  45.972  1.00  0.00     0.135 C 
ATOM      6  C   UNL     1       4.085  -9.180  47.016  1.00  0.00     0.124 C 
ATOM      7  N   UNL     1       3.386 -10.437  47.445  1.00  0.00    -0.194 NA
ATOM      8  C   UNL     1       1.888 -10.328  47.381  1.00  0.00     0.124 C 
ATOM      9  C   UNL     1       1.402  -8.882  47.534  1.00  0.00     0.135 C 
ATOM     10  H   UNL     1       1.518  -5.097  45.189  1.00  0.00     0.162 HD
ENDROOT
BRANCH   1  11
ATOM     11  C   UNL     1       1.768  -6.632  43.825  1.00  0.00     0.112 C 
ATOM     12  C   UNL     1       0.329  -6.936  43.459  1.00  0.00     0.027 C 
ENDBRANCH   1  11
BRANCH   7  13
ATOM     13  S   UNL     1       3.953 -11.115  48.909  1.00  0.00     0.243 S 
ATOM     14  O   UNL     1       3.549 -10.242  49.990  1.00  0.00    -0.207 OA
ATOM     15  O   UNL     1       5.344 -11.462  48.709  1.00  0.00    -0.207 OA
BRANCH  13  16
ATOM     16  C   UNL     1       3.004 -12.607  49.045  1.00  0.00     0.082 A 
ATOM     17  C   UNL     1       3.163 -13.598  48.077  1.00  0.00     0.022 A 
ATOM     18  C   UNL     1       2.103 -12.773  50.099  1.00  0.00     0.025 A 
ATOM     19  C   UNL     1       2.423 -14.775  48.176  1.00  0.00     0.005 A 
ATOM     20  C   UNL     1       1.355 -13.957  50.206  1.00  0.00    -0.047 A 
ATOM     21  C   UNL     1       1.520 -14.969  49.235  1.00  0.00    -0.048 A 
ATOM     22  C   UNL     1       0.388 -14.115  51.348  1.00  0.00     0.044 C 
ATOM     23  C   UNL     1       0.734 -16.252  49.304  1.00  0.00     0.044 C 
ENDBRANCH  13  16
ENDBRANCH   7  13
TORSDOF 3
ENDMDL
MODEL 3
REMARK VINA RESULT:    -8.879      3.453      7.361
REMARK INTER + INTRA:         -10.885
REMARK INTER:                 -10.468
REMARK INTRA:                  -0.417
REMARK UNBOUND:                -0.449
REMARK SMILES CCNC(=S)N1CCN(S(=O)(=O)c2ccc(C)c(C)c2)CC1
REMARK SMILES IDX 3 1 4 2 5 3 6 4 7 5 8 6 9 7 21 8 22 9 2 11 1 12 10 13 11 14
REMARK SMILES IDX 12 15 13 16 14 17 20 18 15 19 18 20 16 21 19 22 17 23
REMARK H PARENT 3 10
ROOT
ATOM      1  N   UNL     1       1.064  -5.659  46.057  1.00  0.00    -0.363 N 
ATOM      2  C   UNL     1       0.700  -6.365  47.170  1.00  0.00     0.169 C 
ATOM      3  S   UNL     1      -0.207  -5.539  48.312  1.00  0.00    -0.041 S 
ATOM      4  N   UNL     1       1.130  -7.675  47.271  1.00  0.00    -0.347 N 
ATOM      5  C   UNL     1       2.386  -8.124  46.646  1.00  0.00     0.135 C 
ATOM      6  C   UNL     1       3.222  -9.001  47.593  1.00  0.00     0.124 C 
ATOM      7  N   UNL     1       2.480 -10.242  47.997  1.00  0.00    -0.194 NA
ATOM      8  C   UNL     1       0.989 -10.050  48.036  1.00  0.00     0.124 C 
ATOM      9  C   UNL     1       0.596  -8.591  48.297  1.00  0.00     0.135 C 
ATOM     10  H   UNL     1       0.782  -4.689  46.157  1.00  0.00     0.162 HD
ENDROOT
BRANCH   1  11
ATOM     11  C   UNL     1       0.861  -6.154  44.700  1.00  0.00     0.112 C 
ATOM     12  C   UNL     1       2.057  -5.841  43.822  1.00  0.00     0.027 C 
ENDBRANCH   1  11
BRANCH   7  13
ATOM     13  S   UNL     1       3.096 -11.031  49.383  1.00  0.00     0.243 S 
ATOM     14  O   UNL     1       2.490 -10.425  50.548  1.00  0.00    -0.207 OA
ATOM     15  O   UNL     1       4.535 -11.092  49.236  1.00  0.00    -0.207 OA
BRANCH  13  16
ATOM     16  C   UNL     1       2.435 -12.670  49.228  1.00  0.00     0.082 A 
ATOM     17  C   UNL     1       1.704 -13.205  50.288  1.00  0.00     0.022 A 
ATOM     18  C   UNL     1       2.658 -13.410  48.066  1.00  0.00     0.025 A 
ATOM     19  C   UNL     1       1.179 -14.491  50.176  1.00  0.00     0.005 A 
ATOM     20  C   UNL     1       2.132 -14.706  47.945  1.00  0.00    -0.047 A 
ATOM     21  C   UNL     1       1.381 -15.250  49.010  1.00  0.00    -0.048 A 
ATOM     22  C   UNL     1       2.386 -15.489  46.685  1.00  0.00     0.044 C 
ATOM     23  C   UNL     1       0.804 -16.638  48.930  1.00  0.00     0.044 C 
ENDBRANCH  13  16
ENDBRANCH   7  13
TORSDOF 3
ENDMDL
MODEL 4
REMARK VINA RESULT:    -8.410      3.269      7.206
REMARK INTER + INTRA:         -10.334
REMARK INTER:                  -9.911
REMARK INTRA:                  -0.423
REMARK UNBOUND:                -0.449
REMARK SMILES CCNC(=S)N1CCN(S(=O)(=O)c2ccc(C)c(C)c2)CC1
REMARK SMILES IDX 3 1 4 2 5 3 6 4 7 5 8 6 9 7 21 8 22 9 2 11 1 12 10 13 11 14
REMARK SMILES IDX 12 15 13 16 14 17 20 18 15 19 18 20 16 21 19 22 17 23
REMARK H PARENT 3 10
ROOT
ATOM      1  N   UNL     1       0.855  -7.402  44.828  1.00  0.00    -0.363 N 
ATOM      2  C   UNL     1       2.134  -7.652  45.243  1.00  0.00     0.169 C 
ATOM      3  S   UNL     1       3.363  -7.068  44.265  1.00  0.00    -0.041 S 
ATOM      4  N   UNL     1       2.302  -8.382  46.405  1.00  0.00    -0.347 N 
ATOM      5  C   UNL     1       1.312  -9.385  46.836  1.00  0.00     0.135 C 
ATOM      6  C   UNL     1       1.976 -10.691  47.299  1.00  0.00     0.124 C 
ATOM      7  N   UNL     1       2.889 -10.464  48.469  1.00  0.00    -0.194 NA
ATOM      8  C   UNL     1       3.508  -9.094  48.475  1.00  0.00     0.124 C 
ATOM      9  C   UNL     1       3.616  -8.497  47.068  1.00  0.00     0.135 C 
ATOM     10  H   UNL     1       0.871  -6.959  43.915  1.00  0.00     0.162 HD
ENDROOT
BRANCH   1  11
ATOM     11  C   UNL     1      -0.167  -6.832  45.699  1.00  0.00     0.112 C 
ATOM     12  C   UNL     1      -1.542  -7.362  45.344  1.00  0.00     0.027 C 
ENDBRANCH   1  11
BRANCH   7  13
ATOM     13  S   UNL     1       4.017 -11.716  48.757  1.00  0.00     0.243 S 
ATOM     14  O   UNL     1       4.540 -11.546  50.095  1.00  0.00    -0.207 OA
ATOM     15  O   UNL     1       4.900 -11.769  47.611  1.00  0.00    -0.207 OA
BRANCH  13  16
ATOM     16  C   UNL     1       2.998 -13.168  48.763  1.00  0.00     0.082 A 
ATOM     17  C   UNL     1       3.172 -14.119  47.758  1.00  0.00     0.022 A 
ATOM     18  C   UNL     1       2.030 -13.343  49.754  1.00  0.00     0.025 A 
ATOM     19  C   UNL     1       2.378 -15.264  47.756  1.00  0.00     0.005 A 
ATOM     20  C   UNL     1       1.226 -14.494  49.759  1.00  0.00    -0.047 A 
ATOM     21  C   UNL     1       1.406 -15.467  48.750  1.00  0.00    -0.048 A 
ATOM     22  C   UNL     1       0.187 -14.662  50.834  1.00  0.00     0.044 C 
ATOM     23  C   UNL     1       0.563 -16.713  48.709  1.00  0.00     0.044 C 
ENDBRANCH  13  16
ENDBRANCH   7  13
TORSDOF 3
ENDMDL
MODEL 5
REMARK VINA RESULT:    -8.295      2.645      3.705
REMARK INTER + INTRA:         -10.199
REMARK INTER:                  -9.886
REMARK INTRA:                  -0.313
REMARK UNBOUND:                -0.449
REMARK SMILES CCNC(=S)N1CCN(S(=O)(=O)c2ccc(C)c(C)c2)CC1
REMARK SMILES IDX 3 1 4 2 5 3 6 4 7 5 8 6 9 7 21 8 22 9 2 11 1 12 10 13 11 14
REMARK SMILES IDX 12 15 13 16 14 17 20 18 15 19 18 20 16 21 19 22 17 23
REMARK H PARENT 3 10
ROOT
ATOM      1  N   UNL     1       0.372 -15.659  49.424  1.00  0.00    -0.363 N 
ATOM      2  C   UNL     1       0.877 -14.566  50.074  1.00  0.00     0.169 C 
ATOM      3  S   UNL     1       0.029 -14.044  51.421  1.00  0.00    -0.041 S 
ATOM      4  N   UNL     1       2.012 -13.976  49.553  1.00  0.00    -0.347 N 
ATOM      5  C   UNL     1       2.315 -14.023  48.111  1.00  0.00     0.135 C 
ATOM      6  C   UNL     1       2.767 -12.658  47.570  1.00  0.00     0.124 C 
ATOM      7  N   UNL     1       4.016 -12.179  48.251  1.00  0.00    -0.194 NA
ATOM      8  C   UNL     1       4.137 -12.664  49.668  1.00  0.00     0.124 C 
ATOM      9  C   UNL     1       2.772 -12.956  50.302  1.00  0.00     0.135 C 
ATOM     10  H   UNL     1      -0.515 -15.926  49.839  1.00  0.00     0.162 HD
ENDROOT
BRANCH   1  11
ATOM     11  C   UNL     1       1.184 -16.817  49.067  1.00  0.00     0.112 C 
ATOM     12  C   UNL     1       0.719 -17.426  47.759  1.00  0.00     0.027 C 
ENDBRANCH   1  11
BRANCH   7  13
ATOM     13  S   UNL     1       4.335 -10.507  48.080  1.00  0.00     0.243 S 
ATOM     14  O   UNL     1       5.080 -10.319  46.854  1.00  0.00    -0.207 OA
ATOM     15  O   UNL     1       4.853 -10.038  49.348  1.00  0.00    -0.207 OA
BRANCH  13  16
ATOM     16  C   UNL     1       2.718  -9.822  47.832  1.00  0.00     0.082 A 
ATOM     17  C   UNL     1       1.964  -9.455  48.945  1.00  0.00     0.022 A 
ATOM     18  C   UNL     1       2.209  -9.671  46.541  1.00  0.00     0.025 A 
ATOM     19  C   UNL     1       0.692  -8.914  48.761  1.00  0.00     0.005 A 
ATOM     20  C   UNL     1       0.930  -9.126  46.347  1.00  0.00    -0.047 A 
ATOM     21  C   UNL     1       0.165  -8.740  47.470  1.00  0.00    -0.048 A 
ATOM     22  C   UNL     1       0.400  -8.973  44.947  1.00  0.00     0.044 C 
ATOM     23  C   UNL     1      -1.215  -8.159  47.313  1.00  0.00     0.044 C 
ENDBRANCH  13  16
ENDBRANCH   7  13
TORSDOF 3
ENDMDL
MODEL 6
REMARK VINA RESULT:    -8.249      2.327      7.620
REMARK INTER + INTRA:         -10.145
REMARK INTER:                 -10.022
REMARK INTRA:                  -0.123
REMARK UNBOUND:                -0.449
REMARK SMILES CCNC(=S)N1CCN(S(=O)(=O)c2ccc(C)c(C)c2)CC1
REMARK SMILES IDX 3 1 4 2 5 3 6 4 7 5 8 6 9 7 21 8 22 9 2 11 1 12 10 13 11 14
REMARK SMILES IDX 12 15 13 16 14 17 20 18 15 19 18 20 16 21 19 22 17 23
REMARK H PARENT 3 10
ROOT
ATOM      1  N   UNL     1       6.107  -8.000  44.060  1.00  0.00    -0.363 N 
ATOM      2  C   UNL     1       5.078  -7.825  44.945  1.00  0.00     0.169 C 
ATOM      3  S   UNL     1       4.424  -6.286  45.032  1.00  0.00    -0.041 S 
ATOM      4  N   UNL     1       4.691  -8.914  45.703  1.00  0.00    -0.347 N 
ATOM      5  C   UNL     1       5.644  -9.974  46.076  1.00  0.00     0.135 C 
ATOM      6  C   UNL     1       5.519 -10.371  47.555  1.00  0.00     0.124 C 
ATOM      7  N   UNL     1       4.150 -10.900  47.872  1.00  0.00    -0.194 NA
ATOM      8  C   UNL     1       3.073 -10.299  47.012  1.00  0.00     0.124 C 
ATOM      9  C   UNL     1       3.448  -8.904  46.499  1.00  0.00     0.135 C 
ATOM     10  H   UNL     1       6.364  -7.107  43.652  1.00  0.00     0.162 HD
ENDROOT
BRANCH   1  11
ATOM     11  C   UNL     1       6.141  -9.082  43.083  1.00  0.00     0.112 C 
ATOM     12  C   UNL     1       7.394  -9.919  43.241  1.00  0.00     0.027 C 
ENDBRANCH   1  11
BRANCH   7  13
ATOM     13  S   UNL     1       3.753 -10.921  49.535  1.00  0.00     0.243 S 
ATOM     14  O   UNL     1       2.924  -9.768  49.811  1.00  0.00    -0.207 OA
ATOM     15  O   UNL     1       4.982 -11.149  50.266  1.00  0.00    -0.207 OA
BRANCH  13  16
ATOM     16  C   UNL     1       2.728 -12.362  49.675  1.00  0.00     0.082 A 
ATOM     17  C   UNL     1       2.766 -13.318  48.662  1.00  0.00     0.022 A 
ATOM     18  C   UNL     1       1.889 -12.522  50.780  1.00  0.00     0.025 A 
ATOM     19  C   UNL     1       1.966 -14.455  48.764  1.00  0.00     0.005 A 
ATOM     20  C   UNL     1       1.080 -13.665  50.890  1.00  0.00    -0.047 A 
ATOM     21  C   UNL     1       1.122 -14.643  49.872  1.00  0.00    -0.048 A 
ATOM     22  C   UNL     1       0.181 -13.816  52.087  1.00  0.00     0.044 C 
ATOM     23  C   UNL     1       0.268 -15.880  49.942  1.00  0.00     0.044 C 
ENDBRANCH  13  16
ENDBRANCH   7  13
TORSDOF 3
ENDMDL
MODEL 7
REMARK VINA RESULT:    -7.820      3.677      6.947
REMARK INTER + INTRA:          -9.640
REMARK INTER:                  -9.587
REMARK INTRA:                  -0.053
REMARK UNBOUND:                -0.449
REMARK SMILES CCNC(=S)N1CCN(S(=O)(=O)c2ccc(C)c(C)c2)CC1
REMARK SMILES IDX 3 1 4 2 5 3 6 4 7 5 8 6 9 7 21 8 22 9 2 11 1 12 10 13 11 14
REMARK SMILES IDX 12 15 13 16 14 17 20 18 15 19 18 20 16 21 19 22 17 23
REMARK H PARENT 3 10
ROOT
ATOM      1  N   UNL     1       2.898 -10.325  49.309  1.00  0.00    -0.363 N 
ATOM      2  C   UNL     1       2.386 -11.069  48.281  1.00  0.00     0.169 C 
ATOM      3  S   UNL     1       1.612 -10.220  47.062  1.00  0.00    -0.041 S 
ATOM      4  N   UNL     1       2.524 -12.442  48.350  1.00  0.00    -0.347 N 
ATOM      5  C   UNL     1       2.587 -13.148  49.643  1.00  0.00     0.135 C 
ATOM      6  C   UNL     1       1.701 -14.402  49.661  1.00  0.00     0.124 C 
ATOM      7  N   UNL     1       2.122 -15.393  48.615  1.00  0.00    -0.194 NA
ATOM      8  C   UNL     1       2.733 -14.746  47.403  1.00  0.00     0.124 C 
ATOM      9  C   UNL     1       2.232 -13.312  47.194  1.00  0.00     0.135 C 
ATOM     10  H   UNL     1       2.635  -9.351  49.193  1.00  0.00     0.162 HD
ENDROOT
BRANCH   1  11
ATOM     11  C   UNL     1       4.266 -10.472  49.793  1.00  0.00     0.112 C 
ATOM     12  C   UNL     1       5.266 -10.072  48.726  1.00  0.00     0.027 C 
ENDBRANCH   1  11
BRANCH   7  13
ATOM     13  S   UNL     1       0.950 -16.577  48.230  1.00  0.00     0.243 S 
ATOM     14  O   UNL     1      -0.357 -16.008  48.474  1.00  0.00    -0.207 OA
ATOM     15  O   UNL     1       1.360 -17.809  48.872  1.00  0.00    -0.207 OA
BRANCH  13  16
ATOM     16  C   UNL     1       1.135 -16.757  46.475  1.00  0.00     0.082 A 
ATOM     17  C   UNL     1       2.246 -17.438  45.980  1.00  0.00     0.022 A 
ATOM     18  C   UNL     1       0.186 -16.210  45.609  1.00  0.00     0.025 A 
ATOM     19  C   UNL     1       2.399 -17.586  44.602  1.00  0.00     0.005 A 
ATOM     20  C   UNL     1       0.333 -16.355  44.220  1.00  0.00    -0.047 A 
ATOM     21  C   UNL     1       1.450 -17.054  43.713  1.00  0.00    -0.048 A 
ATOM     22  C   UNL     1      -0.700 -15.756  43.305  1.00  0.00     0.044 C 
ATOM     23  C   UNL     1       1.655 -17.229  42.231  1.00  0.00     0.044 C 
ENDBRANCH  13  16
ENDBRANCH   7  13
TORSDOF 3
ENDMDL
MODEL 8
REMARK VINA RESULT:    -7.738      4.641      6.650
REMARK INTER + INTRA:          -9.544
REMARK INTER:                  -9.158
REMARK INTRA:                  -0.386
REMARK UNBOUND:                -0.449
REMARK SMILES CCNC(=S)N1CCN(S(=O)(=O)c2ccc(C)c(C)c2)CC1
REMARK SMILES IDX 3 1 4 2 5 3 6 4 7 5 8 6 9 7 21 8 22 9 2 11 1 12 10 13 11 14
REMARK SMILES IDX 12 15 13 16 14 17 20 18 15 19 18 20 16 21 19 22 17 23
REMARK H PARENT 3 10
ROOT
ATOM      1  N   UNL     1       4.923 -10.043  48.661  1.00  0.00    -0.363 N 
ATOM      2  C   UNL     1       4.202  -9.611  47.581  1.00  0.00     0.169 C 
ATOM      3  S   UNL     1       5.068  -9.310  46.179  1.00  0.00    -0.041 S 
ATOM      4  N   UNL     1       2.841  -9.433  47.746  1.00  0.00    -0.347 N 
ATOM      5  C   UNL     1       2.263  -9.070  49.051  1.00  0.00     0.135 C 
ATOM      6  C   UNL     1       1.217  -7.951  48.930  1.00  0.00     0.124 C 
ATOM      7  N   UNL     1       0.068  -8.359  48.055  1.00  0.00    -0.194 NA
ATOM      8  C   UNL     1       0.463  -9.335  46.982  1.00  0.00     0.124 C 
ATOM      9  C   UNL     1       1.942  -9.210  46.597  1.00  0.00     0.135 C 
ATOM     10  H   UNL     1       5.914 -10.026  48.441  1.00  0.00     0.162 HD
ENDROOT
BRANCH   1  11
ATOM     11  C   UNL     1       4.552 -11.215  49.446  1.00  0.00     0.112 C 
ATOM     12  C   UNL     1       4.735 -12.488  48.643  1.00  0.00     0.027 C 
ENDBRANCH   1  11
BRANCH   7  13
ATOM     13  S   UNL     1      -0.890  -7.067  47.474  1.00  0.00     0.243 S 
ATOM     14  O   UNL     1      -1.755  -6.634  48.551  1.00  0.00    -0.207 OA
ATOM     15  O   UNL     1      -1.436  -7.480  46.198  1.00  0.00    -0.207 OA
BRANCH  13  16
ATOM     16  C   UNL     1       0.304  -5.785  47.199  1.00  0.00     0.082 A 
ATOM     17  C   UNL     1       0.317  -4.682  48.051  1.00  0.00     0.022 A 
ATOM     18  C   UNL     1       1.203  -5.880  46.135  1.00  0.00     0.025 A 
ATOM     19  C   UNL     1       1.253  -3.670  47.844  1.00  0.00     0.005 A 
ATOM     20  C   UNL     1       2.150  -4.865  45.921  1.00  0.00    -0.047 A 
ATOM     21  C   UNL     1       2.176  -3.750  46.787  1.00  0.00    -0.048 A 
ATOM     22  C   UNL     1       3.109  -4.985  44.767  1.00  0.00     0.044 C 
ATOM     23  C   UNL     1       3.167  -2.633  46.592  1.00  0.00     0.044 C 
ENDBRANCH  13  16
ENDBRANCH   7  13
TORSDOF 3
ENDMDL
MODEL 9
REMARK VINA RESULT:    -7.586      3.144      4.090
REMARK INTER + INTRA:          -9.366
REMARK INTER:                  -9.269
REMARK INTRA:                  -0.097
REMARK UNBOUND:                -0.449
REMARK SMILES CCNC(=S)N1CCN(S(=O)(=O)c2ccc(C)c(C)c2)CC1
REMARK SMILES IDX 3 1 4 2 5 3 6 4 7 5 8 6 9 7 21 8 22 9 2 11 1 12 10 13 11 14
REMARK SMILES IDX 12 15 13 16 14 17 20 18 15 19 18 20 16 21 19 22 17 23
REMARK H PARENT 3 10
ROOT
ATOM      1  N   UNL     1       1.738 -16.968  44.718  1.00  0.00    -0.363 N 
ATOM      2  C   UNL     1       0.986 -16.539  45.777  1.00  0.00     0.169 C 
ATOM      3  S   UNL     1      -0.669 -16.770  45.657  1.00  0.00    -0.041 S 
ATOM      4  N   UNL     1       1.644 -15.932  46.830  1.00  0.00    -0.347 N 
ATOM      5  C   UNL     1       2.897 -15.184  46.629  1.00  0.00     0.135 C 
ATOM      6  C   UNL     1       2.897 -13.842  47.377  1.00  0.00     0.124 C 
ATOM      7  N   UNL     1       2.750 -14.034  48.858  1.00  0.00    -0.194 NA
ATOM      8  C   UNL     1       1.956 -15.260  49.217  1.00  0.00     0.124 C 
ATOM      9  C   UNL     1       0.969 -15.657  48.114  1.00  0.00     0.135 C 
ATOM     10  H   UNL     1       1.130 -17.291  43.973  1.00  0.00     0.162 HD
ENDROOT
BRANCH   1  11
ATOM     11  C   UNL     1       2.917 -17.813  44.872  1.00  0.00     0.112 C 
ATOM     12  C   UNL     1       3.495 -18.192  43.523  1.00  0.00     0.027 C 
ENDBRANCH   1  11
BRANCH   7  13
ATOM     13  S   UNL     1       2.268 -12.640  49.722  1.00  0.00     0.243 S 
ATOM     14  O   UNL     1       3.176 -12.468  50.835  1.00  0.00    -0.207 OA
ATOM     15  O   UNL     1       0.839 -12.740  49.933  1.00  0.00    -0.207 OA
BRANCH  13  16
ATOM     16  C   UNL     1       2.586 -11.332  48.566  1.00  0.00     0.082 A 
ATOM     17  C   UNL     1       3.876 -10.814  48.472  1.00  0.00     0.022 A 
ATOM     18  C   UNL     1       1.552 -10.827  47.776  1.00  0.00     0.025 A 
ATOM     19  C   UNL     1       4.137  -9.788  47.566  1.00  0.00     0.005 A 
ATOM     20  C   UNL     1       1.806  -9.793  46.859  1.00  0.00    -0.047 A 
ATOM     21  C   UNL     1       3.114  -9.271  46.752  1.00  0.00    -0.048 A 
ATOM     22  C   UNL     1       0.677  -9.261  46.019  1.00  0.00     0.044 C 
ATOM     23  C   UNL     1       3.433  -8.158  45.790  1.00  0.00     0.044 C 
ENDBRANCH  13  16
ENDBRANCH   7  13
TORSDOF 3
ENDMDL
MODEL 10
REMARK VINA RESULT:    -7.497     14.227     15.362
REMARK INTER + INTRA:          -9.261
REMARK INTER:                  -8.910
REMARK INTRA:                  -0.351
REMARK UNBOUND:                -0.449
REMARK SMILES CCNC(=S)N1CCN(S(=O)(=O)c2ccc(C)c(C)c2)CC1
REMARK SMILES IDX 3 1 4 2 5 3 6 4 7 5 8 6 9 7 21 8 22 9 2 11 1 12 10 13 11 14
REMARK SMILES IDX 12 15 13 16 14 17 20 18 15 19 18 20 16 21 19 22 17 23
REMARK H PARENT 3 10
ROOT
ATOM      1  N   UNL     1      -9.026 -13.907  34.981  1.00  0.00    -0.363 N 
ATOM      2  C   UNL     1      -8.159 -14.024  36.033  1.00  0.00     0.169 C 
ATOM      3  S   UNL     1      -8.711 -14.883  37.361  1.00  0.00    -0.041 S 
ATOM      4  N   UNL     1      -6.927 -13.407  35.923  1.00  0.00    -0.347 N 
ATOM      5  C   UNL     1      -6.743 -12.190  35.113  1.00  0.00     0.135 C 
ATOM      6  C   UNL     1      -5.910 -11.127  35.846  1.00  0.00     0.124 C 
ATOM      7  N   UNL     1      -4.535 -11.631  36.174  1.00  0.00    -0.194 NA
ATOM      8  C   UNL     1      -4.491 -13.117  36.401  1.00  0.00     0.124 C 
ATOM      9  C   UNL     1      -5.837 -13.672  36.881  1.00  0.00     0.135 C 
ATOM     10  H   UNL     1      -9.925 -14.306  35.231  1.00  0.00     0.162 HD
ENDROOT
BRANCH   1  11
ATOM     11  C   UNL     1      -8.651 -14.211  33.605  1.00  0.00     0.112 C 
ATOM     12  C   UNL     1      -9.878 -14.457  32.749  1.00  0.00     0.027 C 
ENDBRANCH   1  11
BRANCH   7  13
ATOM     13  S   UNL     1      -3.707 -10.739  37.375  1.00  0.00     0.243 S 
ATOM     14  O   UNL     1      -3.115  -9.581  36.742  1.00  0.00    -0.207 OA
ATOM     15  O   UNL     1      -2.897 -11.677  38.123  1.00  0.00    -0.207 OA
BRANCH  13  16
ATOM     16  C   UNL     1      -5.025 -10.164  38.414  1.00  0.00     0.082 A 
ATOM     17  C   UNL     1      -5.414  -8.828  38.332  1.00  0.00     0.022 A 
ATOM     18  C   UNL     1      -5.647 -11.038  39.308  1.00  0.00     0.025 A 
ATOM     19  C   UNL     1      -6.450  -8.367  39.143  1.00  0.00     0.005 A 
ATOM     20  C   UNL     1      -6.692 -10.582  40.128  1.00  0.00    -0.047 A 
ATOM     21  C   UNL     1      -7.099  -9.232  40.041  1.00  0.00    -0.048 A 
ATOM     22  C   UNL     1      -7.347 -11.539  41.085  1.00  0.00     0.044 C 
ATOM     23  C   UNL     1      -8.208  -8.695  40.906  1.00  0.00     0.044 C 
ENDBRANCH  13  16
ENDBRANCH   7  13
TORSDOF 3
ENDMDL
