MODEL 1
REMARK VINA RESULT:    -8.049      0.000      0.000
REMARK INTER + INTRA:          -9.904
REMARK INTER:                  -9.461
REMARK INTRA:                  -0.443
REMARK UNBOUND:                -0.443
REMARK SMILES Cc1cc(C)cc(NS(=O)(=O)c2cccs2)c1
REMARK SMILES IDX 8 1 7 3 2 4 3 5 17 6 4 7 6 8 1 9 5 10 9 11 10 12 11 13 12 14
REMARK SMILES IDX 13 15 16 16 14 17 15 18
REMARK H PARENT 8 2
ROOT
ATOM      1  N   UNL     1       0.098   0.349  31.380  1.00  0.00    -0.279 N 
ATOM      2  H   UNL     1      -0.343   1.264  31.487  1.00  0.00     0.180 HD
ENDROOT
BRANCH   1   3
ATOM      3  C   UNL     1       0.403  -0.276  32.630  1.00  0.00     0.049 A 
ATOM      4  C   UNL     1      -0.294  -0.895  34.866  1.00  0.00    -0.049 A 
ATOM      5  C   UNL     1       1.002  -1.364  35.121  1.00  0.00     0.007 A 
ATOM      6  C   UNL     1      -0.583  -0.339  33.615  1.00  0.00     0.030 A 
ATOM      7  C   UNL     1       1.995  -1.309  34.133  1.00  0.00    -0.049 A 
ATOM      8  C   UNL     1       1.689  -0.749  32.888  1.00  0.00     0.030 A 
ATOM      9  C   UNL     1      -1.341  -0.929  35.940  1.00  0.00     0.044 C 
ATOM     10  C   UNL     1       3.390  -1.777  34.432  1.00  0.00     0.044 C 
ENDBRANCH   1   3
BRANCH   1  11
ATOM     11  S   UNL     1      -0.871  -0.561  30.318  1.00  0.00     0.271 S 
ATOM     12  O   UNL     1      -2.220  -0.599  30.845  1.00  0.00    -0.200 OA
ATOM     13  O   UNL     1      -0.617  -0.058  28.984  1.00  0.00    -0.200 OA
BRANCH  11  14
ATOM     14  C   UNL     1      -0.315  -2.248  30.332  1.00  0.00     0.140 A 
ATOM     15  C   UNL     1      -0.733  -3.353  31.049  1.00  0.00     0.034 A 
ATOM     16  S   UNL     1       0.995  -2.629  29.299  1.00  0.00    -0.131 S 
ATOM     17  C   UNL     1       0.027  -4.519  30.743  1.00  0.00     0.013 A 
ATOM     18  C   UNL     1       1.001  -4.265  29.804  1.00  0.00     0.066 A 
ENDBRANCH  11  14
ENDBRANCH   1  11
TORSDOF 3
ENDMDL
MODEL 2
REMARK VINA RESULT:    -7.997     13.402     14.691
REMARK INTER + INTRA:          -9.843
REMARK INTER:                  -9.437
REMARK INTRA:                  -0.405
REMARK UNBOUND:                -0.443
REMARK SMILES Cc1cc(C)cc(NS(=O)(=O)c2cccs2)c1
REMARK SMILES IDX 8 1 7 3 2 4 3 5 17 6 4 7 6 8 1 9 5 10 9 11 10 12 11 13 12 14
REMARK SMILES IDX 13 15 16 16 14 17 15 18
REMARK H PARENT 8 2
ROOT
ATOM      1  N   UNL     1       0.213  -6.826  43.420  1.00  0.00    -0.279 N 
ATOM      2  H   UNL     1      -0.432  -6.036  43.400  1.00  0.00     0.180 HD
ENDROOT
BRANCH   1   3
ATOM      3  C   UNL     1       1.464  -6.516  44.041  1.00  0.00     0.049 A 
ATOM      4  C   UNL     1       2.806  -4.986  45.355  1.00  0.00    -0.049 A 
ATOM      5  C   UNL     1       3.919  -5.812  45.148  1.00  0.00     0.007 A 
ATOM      6  C   UNL     1       1.578  -5.341  44.784  1.00  0.00     0.030 A 
ATOM      7  C   UNL     1       3.808  -6.996  44.407  1.00  0.00    -0.049 A 
ATOM      8  C   UNL     1       2.574  -7.336  43.842  1.00  0.00     0.030 A 
ATOM      9  C   UNL     1       2.941  -3.704  46.123  1.00  0.00     0.044 C 
ATOM     10  C   UNL     1       5.017  -7.851  44.158  1.00  0.00     0.044 C 
ENDBRANCH   1   3
BRANCH   1  11
ATOM     11  S   UNL     1      -0.627  -8.152  44.079  1.00  0.00     0.271 S 
ATOM     12  O   UNL     1      -2.019  -7.781  44.236  1.00  0.00    -0.200 OA
ATOM     13  O   UNL     1      -0.260  -9.312  43.295  1.00  0.00    -0.200 OA
BRANCH  11  14
ATOM     14  C   UNL     1      -0.034  -8.450  45.726  1.00  0.00     0.140 A 
ATOM     15  C   UNL     1       0.844  -9.388  46.237  1.00  0.00     0.034 A 
ATOM     16  S   UNL     1      -0.646  -7.428  46.955  1.00  0.00    -0.131 S 
ATOM     17  C   UNL     1       1.015  -9.262  47.646  1.00  0.00     0.013 A 
ATOM     18  C   UNL     1       0.261  -8.233  48.164  1.00  0.00     0.066 A 
ENDBRANCH  11  14
ENDBRANCH   1  11
TORSDOF 3
ENDMDL
MODEL 3
REMARK VINA RESULT:    -7.939      0.119      2.094
REMARK INTER + INTRA:          -9.774
REMARK INTER:                  -9.362
REMARK INTRA:                  -0.412
REMARK UNBOUND:                -0.443
REMARK SMILES Cc1cc(C)cc(NS(=O)(=O)c2cccs2)c1
REMARK SMILES IDX 8 1 7 3 2 4 3 5 17 6 4 7 6 8 1 9 5 10 9 11 10 12 11 13 12 14
REMARK SMILES IDX 13 15 16 16 14 17 15 18
REMARK H PARENT 8 2
ROOT
ATOM      1  N   UNL     1       0.119   0.395  31.256  1.00  0.00    -0.279 N 
ATOM      2  H   UNL     1      -0.298   1.325  31.304  1.00  0.00     0.180 HD
ENDROOT
BRANCH   1   3
ATOM      3  C   UNL     1       0.396  -0.163  32.544  1.00  0.00     0.049 A 
ATOM      4  C   UNL     1       1.948  -1.275  34.035  1.00  0.00    -0.049 A 
ATOM      5  C   UNL     1       0.929  -1.378  34.991  1.00  0.00     0.007 A 
ATOM      6  C   UNL     1       1.667  -0.674  32.802  1.00  0.00     0.030 A 
ATOM      7  C   UNL     1      -0.349  -0.861  34.740  1.00  0.00    -0.049 A 
ATOM      8  C   UNL     1      -0.613  -0.263  33.502  1.00  0.00     0.030 A 
ATOM      9  C   UNL     1       3.304  -1.860  34.301  1.00  0.00     0.044 C 
ATOM     10  C   UNL     1      -1.443  -1.013  35.756  1.00  0.00     0.044 C 
ENDBRANCH   1   3
BRANCH   1  11
ATOM     11  S   UNL     1      -0.862  -0.552  30.239  1.00  0.00     0.271 S 
ATOM     12  O   UNL     1      -2.202  -0.582  30.791  1.00  0.00    -0.200 OA
ATOM     13  O   UNL     1      -0.635  -0.088  28.886  1.00  0.00    -0.200 OA
BRANCH  11  14
ATOM     14  C   UNL     1      -0.297  -2.235  30.294  1.00  0.00     0.140 A 
ATOM     15  C   UNL     1      -0.702  -3.323  31.043  1.00  0.00     0.034 A 
ATOM     16  S   UNL     1       1.008  -2.635  29.261  1.00  0.00    -0.131 S 
ATOM     17  C   UNL     1       0.062  -4.492  30.763  1.00  0.00     0.013 A 
ATOM     18  C   UNL     1       1.028  -4.257  29.809  1.00  0.00     0.066 A 
ENDBRANCH  11  14
ENDBRANCH   1  11
TORSDOF 3
ENDMDL
MODEL 4
REMARK VINA RESULT:    -7.789     13.224     14.697
REMARK INTER + INTRA:          -9.597
REMARK INTER:                  -9.189
REMARK INTRA:                  -0.408
REMARK UNBOUND:                -0.443
REMARK SMILES Cc1cc(C)cc(NS(=O)(=O)c2cccs2)c1
REMARK SMILES IDX 8 1 7 3 2 4 3 5 17 6 4 7 6 8 1 9 5 10 9 11 10 12 11 13 12 14
REMARK SMILES IDX 13 15 16 16 14 17 15 18
REMARK H PARENT 8 2
ROOT
ATOM      1  N   UNL     1       0.329  -6.775  43.233  1.00  0.00    -0.279 N 
ATOM      2  H   UNL     1      -0.279  -5.975  43.055  1.00  0.00     0.180 HD
ENDROOT
BRANCH   1   3
ATOM      3  C   UNL     1       1.562  -6.415  43.861  1.00  0.00     0.049 A 
ATOM      4  C   UNL     1       3.841  -6.993  44.445  1.00  0.00    -0.049 A 
ATOM      5  C   UNL     1       3.934  -5.808  45.187  1.00  0.00     0.007 A 
ATOM      6  C   UNL     1       2.641  -7.296  43.792  1.00  0.00     0.030 A 
ATOM      7  C   UNL     1       2.855  -4.916  45.256  1.00  0.00    -0.049 A 
ATOM      8  C   UNL     1       1.662  -5.234  44.597  1.00  0.00     0.030 A 
ATOM      9  C   UNL     1       4.990  -7.956  44.403  1.00  0.00     0.044 C 
ATOM     10  C   UNL     1       2.952  -3.670  46.088  1.00  0.00     0.044 C 
ENDBRANCH   1   3
BRANCH   1  11
ATOM     11  S   UNL     1      -0.598  -7.947  44.047  1.00  0.00     0.271 S 
ATOM     12  O   UNL     1      -1.969  -7.480  44.118  1.00  0.00    -0.200 OA
ATOM     13  O   UNL     1      -0.287  -9.224  43.439  1.00  0.00    -0.200 OA
BRANCH  11  14
ATOM     14  C   UNL     1      -0.050  -8.046  45.734  1.00  0.00     0.140 A 
ATOM     15  C   UNL     1       0.838  -8.894  46.369  1.00  0.00     0.034 A 
ATOM     16  S   UNL     1      -0.734  -6.919  46.826  1.00  0.00    -0.131 S 
ATOM     17  C   UNL     1       0.958  -8.611  47.760  1.00  0.00     0.013 A 
ATOM     18  C   UNL     1       0.157  -7.558  48.141  1.00  0.00     0.066 A 
ENDBRANCH  11  14
ENDBRANCH   1  11
TORSDOF 3
ENDMDL
MODEL 5
REMARK VINA RESULT:    -7.717     19.745     20.640
REMARK INTER + INTRA:          -9.513
REMARK INTER:                  -9.954
REMARK INTRA:                   0.441
REMARK UNBOUND:                -0.443
REMARK SMILES Cc1cc(C)cc(NS(=O)(=O)c2cccs2)c1
REMARK SMILES IDX 8 1 7 3 2 4 3 5 17 6 4 7 6 8 1 9 5 10 9 11 10 12 11 13 12 14
REMARK SMILES IDX 13 15 16 16 14 17 15 18
REMARK H PARENT 8 2
ROOT
ATOM      1  N   UNL     1       2.198 -16.135  47.406  1.00  0.00    -0.279 N 
ATOM      2  H   UNL     1       2.659 -15.961  46.512  1.00  0.00     0.180 HD
ENDROOT
BRANCH   1   3
ATOM      3  C   UNL     1       2.040 -14.953  48.195  1.00  0.00     0.049 A 
ATOM      4  C   UNL     1       1.160 -13.888  50.185  1.00  0.00    -0.049 A 
ATOM      5  C   UNL     1       1.595 -12.649  49.694  1.00  0.00     0.007 A 
ATOM      6  C   UNL     1       1.377 -15.039  49.419  1.00  0.00     0.030 A 
ATOM      7  C   UNL     1       2.267 -12.558  48.467  1.00  0.00    -0.049 A 
ATOM      8  C   UNL     1       2.475 -13.718  47.713  1.00  0.00     0.030 A 
ATOM      9  C   UNL     1       0.415 -13.972  51.483  1.00  0.00     0.044 C 
ATOM     10  C   UNL     1       2.692 -11.221  47.932  1.00  0.00     0.044 C 
ENDBRANCH   1   3
BRANCH   1  11
ATOM     11  S   UNL     1       0.770 -17.002  47.082  1.00  0.00     0.271 S 
ATOM     12  O   UNL     1       1.054 -18.418  47.202  1.00  0.00    -0.200 OA
ATOM     13  O   UNL     1      -0.278 -16.393  47.875  1.00  0.00    -0.200 OA
BRANCH  11  14
ATOM     14  C   UNL     1       0.319 -16.758  45.381  1.00  0.00     0.140 A 
ATOM     15  C   UNL     1      -0.868 -16.375  44.785  1.00  0.00     0.034 A 
ATOM     16  S   UNL     1       1.538 -17.058  44.218  1.00  0.00    -0.131 S 
ATOM     17  C   UNL     1      -0.772 -16.327  43.365  1.00  0.00     0.013 A 
ATOM     18  C   UNL     1       0.485 -16.675  42.923  1.00  0.00     0.066 A 
ENDBRANCH  11  14
ENDBRANCH   1  11
TORSDOF 3
ENDMDL
MODEL 6
REMARK VINA RESULT:    -7.579     14.647     16.170
REMARK INTER + INTRA:          -9.351
REMARK INTER:                  -8.993
REMARK INTRA:                  -0.358
REMARK UNBOUND:                -0.443
REMARK SMILES Cc1cc(C)cc(NS(=O)(=O)c2cccs2)c1
REMARK SMILES IDX 8 1 7 3 2 4 3 5 17 6 4 7 6 8 1 9 5 10 9 11 10 12 11 13 12 14
REMARK SMILES IDX 13 15 16 16 14 17 15 18
REMARK H PARENT 8 2
ROOT
ATOM      1  N   UNL     1      -0.264  -5.714  47.010  1.00  0.00    -0.279 N 
ATOM      2  H   UNL     1       0.213  -5.054  47.624  1.00  0.00     0.180 HD
ENDROOT
BRANCH   1   3
ATOM      3  C   UNL     1       0.569  -6.202  45.954  1.00  0.00     0.049 A 
ATOM      4  C   UNL     1       0.811  -7.539  43.949  1.00  0.00    -0.049 A 
ATOM      5  C   UNL     1       2.188  -7.280  43.962  1.00  0.00     0.007 A 
ATOM      6  C   UNL     1       0.007  -7.003  44.962  1.00  0.00     0.030 A 
ATOM      7  C   UNL     1       2.758  -6.471  44.955  1.00  0.00    -0.049 A 
ATOM      8  C   UNL     1       1.940  -5.944  45.960  1.00  0.00     0.030 A 
ATOM      9  C   UNL     1       0.214  -8.432  42.901  1.00  0.00     0.044 C 
ATOM     10  C   UNL     1       4.240  -6.235  44.982  1.00  0.00     0.044 C 
ENDBRANCH   1   3
BRANCH   1  11
ATOM     11  S   UNL     1      -0.976  -6.904  47.996  1.00  0.00     0.271 S 
ATOM     12  O   UNL     1      -1.150  -6.354  49.326  1.00  0.00    -0.200 OA
ATOM     13  O   UNL     1      -2.108  -7.433  47.266  1.00  0.00    -0.200 OA
BRANCH  11  14
ATOM     14  C   UNL     1       0.167  -8.250  48.194  1.00  0.00     0.140 A 
ATOM     15  C   UNL     1       0.262  -9.481  47.574  1.00  0.00     0.034 A 
ATOM     16  S   UNL     1       1.389  -8.046  49.375  1.00  0.00    -0.131 S 
ATOM     17  C   UNL     1       1.347 -10.259  48.071  1.00  0.00     0.013 A 
ATOM     18  C   UNL     1       2.045  -9.595  49.055  1.00  0.00     0.066 A 
ENDBRANCH  11  14
ENDBRANCH   1  11
TORSDOF 3
ENDMDL
MODEL 7
REMARK VINA RESULT:    -7.568     15.067     16.308
REMARK INTER + INTRA:          -9.338
REMARK INTER:                  -9.046
REMARK INTRA:                  -0.292
REMARK UNBOUND:                -0.443
REMARK SMILES Cc1cc(C)cc(NS(=O)(=O)c2cccs2)c1
REMARK SMILES IDX 8 1 7 3 2 4 3 5 17 6 4 7 6 8 1 9 5 10 9 11 10 12 11 13 12 14
REMARK SMILES IDX 13 15 16 16 14 17 15 18
REMARK H PARENT 8 2
ROOT
ATOM      1  N   UNL     1       4.149  -6.892  45.624  1.00  0.00    -0.279 N 
ATOM      2  H   UNL     1       4.144  -6.449  46.543  1.00  0.00     0.180 HD
ENDROOT
BRANCH   1   3
ATOM      3  C   UNL     1       4.864  -8.131  45.601  1.00  0.00     0.049 A 
ATOM      4  C   UNL     1       5.512 -10.174  46.729  1.00  0.00    -0.049 A 
ATOM      5  C   UNL     1       6.348 -10.485  45.648  1.00  0.00     0.007 A 
ATOM      6  C   UNL     1       4.779  -8.982  46.702  1.00  0.00     0.030 A 
ATOM      7  C   UNL     1       6.433  -9.636  44.536  1.00  0.00    -0.049 A 
ATOM      8  C   UNL     1       5.693  -8.448  44.526  1.00  0.00     0.030 A 
ATOM      9  C   UNL     1       5.453 -11.073  47.928  1.00  0.00     0.044 C 
ATOM     10  C   UNL     1       7.363  -9.960  43.403  1.00  0.00     0.044 C 
ENDBRANCH   1   3
BRANCH   1  11
ATOM     11  S   UNL     1       2.536  -6.962  45.085  1.00  0.00     0.271 S 
ATOM     12  O   UNL     1       1.959  -5.637  45.191  1.00  0.00    -0.200 OA
ATOM     13  O   UNL     1       2.549  -7.659  43.816  1.00  0.00    -0.200 OA
BRANCH  11  14
ATOM     14  C   UNL     1       1.597  -7.972  46.204  1.00  0.00     0.140 A 
ATOM     15  C   UNL     1       1.121  -9.266  46.104  1.00  0.00     0.034 A 
ATOM     16  S   UNL     1       1.151  -7.252  47.691  1.00  0.00    -0.131 S 
ATOM     17  C   UNL     1       0.389  -9.667  47.259  1.00  0.00     0.013 A 
ATOM     18  C   UNL     1       0.329  -8.665  48.202  1.00  0.00     0.066 A 
ENDBRANCH  11  14
ENDBRANCH   1  11
TORSDOF 3
ENDMDL
MODEL 8
REMARK VINA RESULT:    -7.539     15.761     17.321
REMARK INTER + INTRA:          -9.304
REMARK INTER:                  -9.125
REMARK INTRA:                  -0.179
REMARK UNBOUND:                -0.443
REMARK SMILES Cc1cc(C)cc(NS(=O)(=O)c2cccs2)c1
REMARK SMILES IDX 8 1 7 3 2 4 3 5 17 6 4 7 6 8 1 9 5 10 9 11 10 12 11 13 12 14
REMARK SMILES IDX 13 15 16 16 14 17 15 18
REMARK H PARENT 8 2
ROOT
ATOM      1  N   UNL     1       1.631 -10.545  47.877  1.00  0.00    -0.279 N 
ATOM      2  H   UNL     1       1.178 -11.028  48.653  1.00  0.00     0.180 HD
ENDROOT
BRANCH   1   3
ATOM      3  C   UNL     1       0.743  -9.687  47.154  1.00  0.00     0.049 A 
ATOM      4  C   UNL     1       0.004  -8.774  45.036  1.00  0.00    -0.049 A 
ATOM      5  C   UNL     1      -0.876  -7.929  45.727  1.00  0.00     0.007 A 
ATOM      6  C   UNL     1       0.823  -9.645  45.763  1.00  0.00     0.030 A 
ATOM      7  C   UNL     1      -0.964  -7.970  47.125  1.00  0.00    -0.049 A 
ATOM      8  C   UNL     1      -0.138  -8.847  47.836  1.00  0.00     0.030 A 
ATOM      9  C   UNL     1       0.114  -8.700  43.542  1.00  0.00     0.044 C 
ATOM     10  C   UNL     1      -1.880  -7.032  47.855  1.00  0.00     0.044 C 
ENDBRANCH   1   3
BRANCH   1  11
ATOM     11  S   UNL     1       3.036  -9.804  48.488  1.00  0.00     0.271 S 
ATOM     12  O   UNL     1       2.671  -8.517  49.045  1.00  0.00    -0.200 OA
ATOM     13  O   UNL     1       3.710 -10.792  49.304  1.00  0.00    -0.200 OA
BRANCH  11  14
ATOM     14  C   UNL     1       4.130  -9.436  47.138  1.00  0.00     0.140 A 
ATOM     15  C   UNL     1       4.099  -8.457  46.163  1.00  0.00     0.034 A 
ATOM     16  S   UNL     1       5.481 -10.470  46.947  1.00  0.00    -0.131 S 
ATOM     17  C   UNL     1       5.195  -8.556  45.258  1.00  0.00     0.013 A 
ATOM     18  C   UNL     1       6.025  -9.609  45.571  1.00  0.00     0.066 A 
ENDBRANCH  11  14
ENDBRANCH   1  11
TORSDOF 3
ENDMDL
MODEL 9
REMARK VINA RESULT:    -7.460     14.882     16.268
REMARK INTER + INTRA:          -9.211
REMARK INTER:                  -8.890
REMARK INTRA:                  -0.321
REMARK UNBOUND:                -0.443
REMARK SMILES Cc1cc(C)cc(NS(=O)(=O)c2cccs2)c1
REMARK SMILES IDX 8 1 7 3 2 4 3 5 17 6 4 7 6 8 1 9 5 10 9 11 10 12 11 13 12 14
REMARK SMILES IDX 13 15 16 16 14 17 15 18
REMARK H PARENT 8 2
ROOT
ATOM      1  N   UNL     1       2.175  -7.960  47.726  1.00  0.00    -0.279 N 
ATOM      2  H   UNL     1       2.257  -8.014  48.742  1.00  0.00     0.180 HD
ENDROOT
BRANCH   1   3
ATOM      3  C   UNL     1       3.301  -8.518  47.042  1.00  0.00     0.049 A 
ATOM      4  C   UNL     1       5.126 -10.109  47.002  1.00  0.00    -0.049 A 
ATOM      5  C   UNL     1       5.576  -9.537  45.805  1.00  0.00     0.007 A 
ATOM      6  C   UNL     1       3.988  -9.582  47.624  1.00  0.00     0.030 A 
ATOM      7  C   UNL     1       4.886  -8.471  45.212  1.00  0.00    -0.049 A 
ATOM      8  C   UNL     1       3.750  -7.955  45.847  1.00  0.00     0.030 A 
ATOM      9  C   UNL     1       5.889 -11.229  47.645  1.00  0.00     0.044 C 
ATOM     10  C   UNL     1       5.401  -7.840  43.951  1.00  0.00     0.044 C 
ENDBRANCH   1   3
BRANCH   1  11
ATOM     11  S   UNL     1       0.660  -8.609  47.303  1.00  0.00     0.271 S 
ATOM     12  O   UNL     1       0.739 -10.054  47.390  1.00  0.00    -0.200 OA
ATOM     13  O   UNL     1      -0.335  -7.881  48.062  1.00  0.00    -0.200 OA
BRANCH  11  14
ATOM     14  C   UNL     1       0.340  -8.261  45.591  1.00  0.00     0.140 A 
ATOM     15  C   UNL     1       0.344  -9.065  44.467  1.00  0.00     0.034 A 
ATOM     16  S   UNL     1      -0.024  -6.635  45.198  1.00  0.00    -0.131 S 
ATOM     17  C   UNL     1       0.041  -8.340  43.278  1.00  0.00     0.013 A 
ATOM     18  C   UNL     1      -0.182  -7.006  43.534  1.00  0.00     0.066 A 
ENDBRANCH  11  14
ENDBRANCH   1  11
TORSDOF 3
ENDMDL
MODEL 10
REMARK VINA RESULT:    -7.384     14.785     16.124
REMARK INTER + INTRA:          -9.121
REMARK INTER:                  -8.863
REMARK INTRA:                  -0.258
REMARK UNBOUND:                -0.443
REMARK SMILES Cc1cc(C)cc(NS(=O)(=O)c2cccs2)c1
REMARK SMILES IDX 8 1 7 3 2 4 3 5 17 6 4 7 6 8 1 9 5 10 9 11 10 12 11 13 12 14
REMARK SMILES IDX 13 15 16 16 14 17 15 18
REMARK H PARENT 8 2
ROOT
ATOM      1  N   UNL     1       3.575  -6.548  45.371  1.00  0.00    -0.279 N 
ATOM      2  H   UNL     1       3.518  -5.959  46.202  1.00  0.00     0.180 HD
ENDROOT
BRANCH   1   3
ATOM      3  C   UNL     1       4.381  -7.714  45.564  1.00  0.00     0.049 A 
ATOM      4  C   UNL     1       6.113  -9.199  44.750  1.00  0.00    -0.049 A 
ATOM      5  C   UNL     1       5.873 -10.048  45.839  1.00  0.00     0.007 A 
ATOM      6  C   UNL     1       5.349  -8.034  44.613  1.00  0.00     0.030 A 
ATOM      7  C   UNL     1       4.905  -9.729  46.801  1.00  0.00    -0.049 A 
ATOM      8  C   UNL     1       4.150  -8.561  46.649  1.00  0.00     0.030 A 
ATOM      9  C   UNL     1       7.129  -9.565  43.709  1.00  0.00     0.044 C 
ATOM     10  C   UNL     1       4.629 -10.667  47.940  1.00  0.00     0.044 C 
ENDBRANCH   1   3
BRANCH   1  11
ATOM     11  S   UNL     1       1.984  -6.832  44.838  1.00  0.00     0.271 S 
ATOM     12  O   UNL     1       1.343  -5.553  44.606  1.00  0.00    -0.200 OA
ATOM     13  O   UNL     1       2.066  -7.816  43.780  1.00  0.00    -0.200 OA
BRANCH  11  14
ATOM     14  C   UNL     1       1.060  -7.586  46.155  1.00  0.00     0.140 A 
ATOM     15  C   UNL     1       0.481  -8.834  46.281  1.00  0.00     0.034 A 
ATOM     16  S   UNL     1       0.787  -6.624  47.544  1.00  0.00    -0.131 S 
ATOM     17  C   UNL     1      -0.187  -9.000  47.529  1.00  0.00     0.013 A 
ATOM     18  C   UNL     1      -0.097  -7.872  48.313  1.00  0.00     0.066 A 
ENDBRANCH  11  14
ENDBRANCH   1  11
TORSDOF 3
ENDMDL
