MODEL 1
REMARK VINA RESULT:   -10.290      0.000      0.000
REMARK INTER + INTRA:         -12.100
REMARK INTER:                 -12.696
REMARK INTRA:                   0.596
REMARK UNBOUND:                 0.596
REMARK SMILES COc1cccc(NS(=O)(=O)c2ccc3c(c2)n(C)c(=O)c(=O)n3C)c1
REMARK SMILES IDX 8 1 7 3 3 4 4 5 26 6 5 7 6 8 2 9 1 10 9 11 10 12 11 13 12 14
REMARK SMILES IDX 13 15 17 16 14 17 16 18 15 19 18 20 24 21 20 22 22 23 21 24
REMARK SMILES IDX 23 25 19 26 25 27
REMARK H PARENT 8 2
ROOT
ATOM      1  N   UNL     1       3.296 -12.951  49.002  1.00  0.00    -0.279 N 
ATOM      2  H   UNL     1       4.206 -13.388  48.870  1.00  0.00     0.180 HD
ENDROOT
BRANCH   1   3
ATOM      3  C   UNL     1       2.210 -13.771  49.419  1.00  0.00     0.052 A 
ATOM      4  C   UNL     1       0.754 -15.672  49.075  1.00  0.00     0.120 A 
ATOM      5  C   UNL     1      -0.002 -15.270  50.178  1.00  0.00     0.046 A 
ATOM      6  C   UNL     1       1.869 -14.920  48.701  1.00  0.00     0.073 A 
ATOM      7  C   UNL     1       0.345 -14.131  50.904  1.00  0.00     0.006 A 
ATOM      8  C   UNL     1       1.455 -13.379  50.524  1.00  0.00     0.027 A 
BRANCH   4   9
ATOM      9  O   UNL     1       0.300 -16.799  48.449  1.00  0.00    -0.497 OA
ATOM     10  C   UNL     1       0.364 -16.819  47.028  1.00  0.00     0.278 C 
ENDBRANCH   4   9
ENDBRANCH   1   3
BRANCH   1  11
ATOM     11  S   UNL     1       3.420 -11.374  49.595  1.00  0.00     0.261 S 
ATOM     12  O   UNL     1       2.639 -11.339  50.815  1.00  0.00    -0.201 OA
ATOM     13  O   UNL     1       4.804 -10.953  49.576  1.00  0.00    -0.201 OA
BRANCH  11  14
ATOM     14  C   UNL     1       2.545 -10.416  48.376  1.00  0.00     0.090 A 
ATOM     15  C   UNL     1       1.156 -10.414  48.363  1.00  0.00     0.024 A 
ATOM     16  C   UNL     1       3.264  -9.639  47.462  1.00  0.00     0.050 A 
ATOM     17  C   UNL     1       0.487  -9.653  47.404  1.00  0.00     0.030 A 
ATOM     18  C   UNL     1       2.599  -8.883  46.482  1.00  0.00     0.069 A 
ATOM     19  C   UNL     1       1.190  -8.886  46.453  1.00  0.00     0.068 A 
ATOM     20  N   UNL     1       3.334  -8.130  45.526  1.00  0.00    -0.305 N 
ATOM     21  N   UNL     1       0.494  -8.122  45.478  1.00  0.00    -0.305 N 
ATOM     22  C   UNL     1       2.699  -7.372  44.543  1.00  0.00     0.316 A 
ATOM     23  C   UNL     1       1.166  -7.358  44.525  1.00  0.00     0.316 A 
ATOM     24  O   UNL     1       3.301  -6.718  43.695  1.00  0.00    -0.263 OA
ATOM     25  O   UNL     1       0.596  -6.683  43.672  1.00  0.00    -0.263 OA
ATOM     26  C   UNL     1       4.789  -8.148  45.533  1.00  0.00     0.154 C 
ATOM     27  C   UNL     1      -0.961  -8.107  45.452  1.00  0.00     0.154 C 
ENDBRANCH  11  14
ENDBRANCH   1  11
TORSDOF 4
ENDMDL
MODEL 2
REMARK VINA RESULT:   -10.160      3.919      6.304
REMARK INTER + INTRA:         -11.940
REMARK INTER:                 -11.248
REMARK INTRA:                  -0.692
REMARK UNBOUND:                 0.596
REMARK SMILES COc1cccc(NS(=O)(=O)c2ccc3c(c2)n(C)c(=O)c(=O)n3C)c1
REMARK SMILES IDX 8 1 7 3 3 4 4 5 26 6 5 7 6 8 2 9 1 10 9 11 10 12 11 13 12 14
REMARK SMILES IDX 13 15 17 16 14 17 16 18 15 19 18 20 24 21 20 22 22 23 21 24
REMARK SMILES IDX 23 25 19 26 25 27
REMARK H PARENT 8 2
ROOT
ATOM      1  N   UNL     1      -0.375  -8.439  48.313  1.00  0.00    -0.279 N 
ATOM      2  H   UNL     1      -1.050  -8.682  49.036  1.00  0.00     0.180 HD
ENDROOT
BRANCH   1   3
ATOM      3  C   UNL     1      -0.869  -8.037  47.041  1.00  0.00     0.052 A 
ATOM      4  C   UNL     1      -0.797  -8.140  44.624  1.00  0.00     0.120 A 
ATOM      5  C   UNL     1      -1.756  -7.126  44.570  1.00  0.00     0.046 A 
ATOM      6  C   UNL     1      -0.359  -8.599  45.867  1.00  0.00     0.073 A 
ATOM      7  C   UNL     1      -2.277  -6.574  45.740  1.00  0.00     0.006 A 
ATOM      8  C   UNL     1      -1.833  -7.030  46.980  1.00  0.00     0.027 A 
BRANCH   4   9
ATOM      9  O   UNL     1      -0.366  -8.586  43.406  1.00  0.00    -0.497 OA
ATOM     10  C   UNL     1       0.505  -7.729  42.677  1.00  0.00     0.278 C 
ENDBRANCH   4   9
ENDBRANCH   1   3
BRANCH   1  11
ATOM     11  S   UNL     1       1.000  -7.688  48.944  1.00  0.00     0.261 S 
ATOM     12  O   UNL     1       1.124  -6.424  48.249  1.00  0.00    -0.201 OA
ATOM     13  O   UNL     1       0.972  -7.753  50.389  1.00  0.00    -0.201 OA
BRANCH  11  14
ATOM     14  C   UNL     1       2.324  -8.737  48.380  1.00  0.00     0.090 A 
ATOM     15  C   UNL     1       2.562  -9.951  49.012  1.00  0.00     0.024 A 
ATOM     16  C   UNL     1       3.092  -8.348  47.279  1.00  0.00     0.050 A 
ATOM     17  C   UNL     1       3.600 -10.763  48.553  1.00  0.00     0.030 A 
ATOM     18  C   UNL     1       4.151  -9.152  46.821  1.00  0.00     0.069 A 
ATOM     19  C   UNL     1       4.408 -10.379  47.464  1.00  0.00     0.068 A 
ATOM     20  N   UNL     1       4.959  -8.732  45.729  1.00  0.00    -0.305 N 
ATOM     21  N   UNL     1       5.466 -11.213  47.014  1.00  0.00    -0.305 N 
ATOM     22  C   UNL     1       6.015  -9.509  45.255  1.00  0.00     0.316 A 
ATOM     23  C   UNL     1       6.281 -10.854  45.942  1.00  0.00     0.316 A 
ATOM     24  O   UNL     1       6.740  -9.174  44.322  1.00  0.00    -0.263 OA
ATOM     25  O   UNL     1       7.200 -11.553  45.524  1.00  0.00    -0.263 OA
ATOM     26  C   UNL     1       4.716  -7.451  45.081  1.00  0.00     0.154 C 
ATOM     27  C   UNL     1       5.727 -12.490  47.663  1.00  0.00     0.154 C 
ENDBRANCH  11  14
ENDBRANCH   1  11
TORSDOF 4
ENDMDL
MODEL 3
REMARK VINA RESULT:   -10.142      1.705      3.007
REMARK INTER + INTRA:         -11.918
REMARK INTER:                 -11.554
REMARK INTRA:                  -0.364
REMARK UNBOUND:                 0.596
REMARK SMILES COc1cccc(NS(=O)(=O)c2ccc3c(c2)n(C)c(=O)c(=O)n3C)c1
REMARK SMILES IDX 8 1 7 3 3 4 4 5 26 6 5 7 6 8 2 9 1 10 9 11 10 12 11 13 12 14
REMARK SMILES IDX 13 15 17 16 14 17 16 18 15 19 18 20 24 21 20 22 22 23 21 24
REMARK SMILES IDX 23 25 19 26 25 27
REMARK H PARENT 8 2
ROOT
ATOM      1  N   UNL     1       2.295 -13.277  49.178  1.00  0.00    -0.279 N 
ATOM      2  H   UNL     1       1.649 -12.494  49.086  1.00  0.00     0.180 HD
ENDROOT
BRANCH   1   3
ATOM      3  C   UNL     1       1.934 -14.518  48.584  1.00  0.00     0.052 A 
ATOM      4  C   UNL     1       1.705 -15.932  46.633  1.00  0.00     0.120 A 
ATOM      5  C   UNL     1       1.088 -16.900  47.429  1.00  0.00     0.046 A 
ATOM      6  C   UNL     1       2.134 -14.739  47.218  1.00  0.00     0.073 A 
ATOM      7  C   UNL     1       0.901 -16.687  48.795  1.00  0.00     0.006 A 
ATOM      8  C   UNL     1       1.325 -15.492  49.375  1.00  0.00     0.027 A 
BRANCH   4   9
ATOM      9  O   UNL     1       1.818 -16.264  45.312  1.00  0.00    -0.497 OA
ATOM     10  C   UNL     1       3.084 -16.742  44.874  1.00  0.00     0.278 C 
ENDBRANCH   4   9
ENDBRANCH   1   3
BRANCH   1  11
ATOM     11  S   UNL     1       3.910 -12.784  49.156  1.00  0.00     0.261 S 
ATOM     12  O   UNL     1       4.219 -12.353  50.504  1.00  0.00    -0.201 OA
ATOM     13  O   UNL     1       4.715 -13.778  48.481  1.00  0.00    -0.201 OA
BRANCH  11  14
ATOM     14  C   UNL     1       3.872 -11.329  48.129  1.00  0.00     0.090 A 
ATOM     15  C   UNL     1       5.040 -10.872  47.532  1.00  0.00     0.024 A 
ATOM     16  C   UNL     1       2.656 -10.679  47.898  1.00  0.00     0.050 A 
ATOM     17  C   UNL     1       4.991  -9.735  46.726  1.00  0.00     0.030 A 
ATOM     18  C   UNL     1       2.600  -9.521  47.102  1.00  0.00     0.069 A 
ATOM     19  C   UNL     1       3.783  -9.044  46.503  1.00  0.00     0.068 A 
ATOM     20  N   UNL     1       1.370  -8.836  46.906  1.00  0.00    -0.305 N 
ATOM     21  N   UNL     1       3.751  -7.882  45.685  1.00  0.00    -0.305 N 
ATOM     22  C   UNL     1       1.286  -7.687  46.121  1.00  0.00     0.316 A 
ATOM     23  C   UNL     1       2.570  -7.179  45.453  1.00  0.00     0.316 A 
ATOM     24  O   UNL     1       0.244  -7.063  45.939  1.00  0.00    -0.263 OA
ATOM     25  O   UNL     1       2.505  -6.175  44.748  1.00  0.00    -0.263 OA
ATOM     26  C   UNL     1       0.152  -9.309  47.547  1.00  0.00     0.154 C 
ATOM     27  C   UNL     1       4.965  -7.392  45.051  1.00  0.00     0.154 C 
ENDBRANCH  11  14
ENDBRANCH   1  11
TORSDOF 4
ENDMDL
MODEL 4
REMARK VINA RESULT:   -10.012      3.863      5.669
REMARK INTER + INTRA:         -11.757
REMARK INTER:                 -12.356
REMARK INTRA:                   0.599
REMARK UNBOUND:                 0.596
REMARK SMILES COc1cccc(NS(=O)(=O)c2ccc3c(c2)n(C)c(=O)c(=O)n3C)c1
REMARK SMILES IDX 8 1 7 3 3 4 4 5 26 6 5 7 6 8 2 9 1 10 9 11 10 12 11 13 12 14
REMARK SMILES IDX 13 15 17 16 14 17 16 18 15 19 18 20 24 21 20 22 22 23 21 24
REMARK SMILES IDX 23 25 19 26 25 27
REMARK H PARENT 8 2
ROOT
ATOM      1  N   UNL     1       1.731 -17.042  47.210  1.00  0.00    -0.279 N 
ATOM      2  H   UNL     1       2.319 -17.865  47.330  1.00  0.00     0.180 HD
ENDROOT
BRANCH   1   3
ATOM      3  C   UNL     1       0.983 -16.921  46.006  1.00  0.00     0.052 A 
ATOM      4  C   UNL     1       0.882 -16.819  43.591  1.00  0.00     0.120 A 
ATOM      5  C   UNL     1      -0.484 -16.538  43.677  1.00  0.00     0.046 A 
ATOM      6  C   UNL     1       1.613 -17.017  44.762  1.00  0.00     0.073 A 
ATOM      7  C   UNL     1      -1.118 -16.455  44.917  1.00  0.00     0.006 A 
ATOM      8  C   UNL     1      -0.383 -16.647  46.085  1.00  0.00     0.027 A 
BRANCH   4   9
ATOM      9  O   UNL     1       1.377 -16.864  42.317  1.00  0.00    -0.497 OA
ATOM     10  C   UNL     1       2.746 -17.224  42.170  1.00  0.00     0.278 C 
ENDBRANCH   4   9
ENDBRANCH   1   3
BRANCH   1  11
ATOM     11  S   UNL     1       1.051 -16.520  48.665  1.00  0.00     0.261 S 
ATOM     12  O   UNL     1      -0.369 -16.375  48.418  1.00  0.00    -0.201 OA
ATOM     13  O   UNL     1       1.546 -17.332  49.755  1.00  0.00    -0.201 OA
BRANCH  11  14
ATOM     14  C   UNL     1       1.727 -14.883  48.860  1.00  0.00     0.090 A 
ATOM     15  C   UNL     1       1.086 -13.963  49.680  1.00  0.00     0.024 A 
ATOM     16  C   UNL     1       2.920 -14.548  48.214  1.00  0.00     0.050 A 
ATOM     17  C   UNL     1       1.633 -12.688  49.826  1.00  0.00     0.030 A 
ATOM     18  C   UNL     1       3.468 -13.259  48.340  1.00  0.00     0.069 A 
ATOM     19  C   UNL     1       2.818 -12.316  49.161  1.00  0.00     0.068 A 
ATOM     20  N   UNL     1       4.658 -12.907  47.646  1.00  0.00    -0.305 N 
ATOM     21  N   UNL     1       3.358 -11.011  49.313  1.00  0.00    -0.305 N 
ATOM     22  C   UNL     1       5.222 -11.637  47.754  1.00  0.00     0.316 A 
ATOM     23  C   UNL     1       4.527 -10.617  48.663  1.00  0.00     0.316 A 
ATOM     24  O   UNL     1       6.242 -11.294  47.161  1.00  0.00    -0.263 OA
ATOM     25  O   UNL     1       5.023  -9.499  48.777  1.00  0.00    -0.263 OA
ATOM     26  C   UNL     1       5.315 -13.869  46.774  1.00  0.00     0.154 C 
ATOM     27  C   UNL     1       2.702 -10.036  50.172  1.00  0.00     0.154 C 
ENDBRANCH  11  14
ENDBRANCH   1  11
TORSDOF 4
ENDMDL
MODEL 5
REMARK VINA RESULT:   -10.005      4.036      8.037
REMARK INTER + INTRA:         -11.749
REMARK INTER:                 -11.032
REMARK INTRA:                  -0.717
REMARK UNBOUND:                 0.596
REMARK SMILES COc1cccc(NS(=O)(=O)c2ccc3c(c2)n(C)c(=O)c(=O)n3C)c1
REMARK SMILES IDX 8 1 7 3 3 4 4 5 26 6 5 7 6 8 2 9 1 10 9 11 10 12 11 13 12 14
REMARK SMILES IDX 13 15 17 16 14 17 16 18 15 19 18 20 24 21 20 22 22 23 21 24
REMARK SMILES IDX 23 25 19 26 25 27
REMARK H PARENT 8 2
ROOT
ATOM      1  N   UNL     1       0.311  -6.567  43.389  1.00  0.00    -0.279 N 
ATOM      2  H   UNL     1      -0.159  -5.781  42.945  1.00  0.00     0.180 HD
ENDROOT
BRANCH   1   3
ATOM      3  C   UNL     1       1.562  -6.330  44.025  1.00  0.00     0.052 A 
ATOM      4  C   UNL     1       3.054  -4.882  45.262  1.00  0.00     0.120 A 
ATOM      5  C   UNL     1       4.062  -5.840  45.132  1.00  0.00     0.046 A 
ATOM      6  C   UNL     1       1.797  -5.135  44.710  1.00  0.00     0.073 A 
ATOM      7  C   UNL     1       3.825  -7.039  44.461  1.00  0.00     0.006 A 
ATOM      8  C   UNL     1       2.571  -7.286  43.905  1.00  0.00     0.027 A 
BRANCH   4   9
ATOM      9  O   UNL     1       3.422  -3.751  45.935  1.00  0.00    -0.497 OA
ATOM     10  C   UNL     1       2.545  -3.294  46.958  1.00  0.00     0.278 C 
ENDBRANCH   4   9
ENDBRANCH   1   3
BRANCH   1  11
ATOM     11  S   UNL     1      -0.776  -7.661  44.077  1.00  0.00     0.261 S 
ATOM     12  O   UNL     1      -2.099  -7.137  43.810  1.00  0.00    -0.201 OA
ATOM     13  O   UNL     1      -0.413  -9.011  43.705  1.00  0.00    -0.201 OA
BRANCH  11  14
ATOM     14  C   UNL     1      -0.475  -7.482  45.823  1.00  0.00     0.090 A 
ATOM     15  C   UNL     1      -1.165  -6.519  46.549  1.00  0.00     0.024 A 
ATOM     16  C   UNL     1       0.428  -8.338  46.460  1.00  0.00     0.050 A 
ATOM     17  C   UNL     1      -0.921  -6.396  47.917  1.00  0.00     0.030 A 
ATOM     18  C   UNL     1       0.693  -8.210  47.835  1.00  0.00     0.069 A 
ATOM     19  C   UNL     1       0.007  -7.228  48.576  1.00  0.00     0.068 A 
ATOM     20  N   UNL     1       1.645  -9.054  48.470  1.00  0.00    -0.305 N 
ATOM     21  N   UNL     1       0.250  -7.085  49.969  1.00  0.00    -0.305 N 
ATOM     22  C   UNL     1       1.927  -8.948  49.831  1.00  0.00     0.316 A 
ATOM     23  C   UNL     1       1.165  -7.893  50.642  1.00  0.00     0.316 A 
ATOM     24  O   UNL     1       2.750  -9.651  50.412  1.00  0.00    -0.263 OA
ATOM     25  O   UNL     1       1.395  -7.800  51.845  1.00  0.00    -0.263 OA
ATOM     26  C   UNL     1       2.378 -10.049  47.702  1.00  0.00     0.154 C 
ATOM     27  C   UNL     1      -0.467  -6.084  50.745  1.00  0.00     0.154 C 
ENDBRANCH  11  14
ENDBRANCH   1  11
TORSDOF 4
ENDMDL
MODEL 6
REMARK VINA RESULT:    -9.926      4.399      8.157
REMARK INTER + INTRA:         -11.652
REMARK INTER:                 -11.093
REMARK INTRA:                  -0.559
REMARK UNBOUND:                 0.596
REMARK SMILES COc1cccc(NS(=O)(=O)c2ccc3c(c2)n(C)c(=O)c(=O)n3C)c1
REMARK SMILES IDX 8 1 7 3 3 4 4 5 26 6 5 7 6 8 2 9 1 10 9 11 10 12 11 13 12 14
REMARK SMILES IDX 13 15 17 16 14 17 16 18 15 19 18 20 24 21 20 22 22 23 21 24
REMARK SMILES IDX 23 25 19 26 25 27
REMARK H PARENT 8 2
ROOT
ATOM      1  N   UNL     1       0.359  -6.731  43.438  1.00  0.00    -0.279 N 
ATOM      2  H   UNL     1      -0.217  -5.962  43.097  1.00  0.00     0.180 HD
ENDROOT
BRANCH   1   3
ATOM      3  C   UNL     1       1.600  -6.416  44.058  1.00  0.00     0.052 A 
ATOM      4  C   UNL     1       3.008  -4.886  45.296  1.00  0.00     0.120 A 
ATOM      5  C   UNL     1       4.079  -5.769  45.134  1.00  0.00     0.046 A 
ATOM      6  C   UNL     1       1.763  -5.218  44.759  1.00  0.00     0.073 A 
ATOM      7  C   UNL     1       3.914  -6.972  44.447  1.00  0.00     0.006 A 
ATOM      8  C   UNL     1       2.671  -7.297  43.907  1.00  0.00     0.027 A 
BRANCH   4   9
ATOM      9  O   UNL     1       3.308  -3.742  45.981  1.00  0.00    -0.497 OA
ATOM     10  C   UNL     1       2.404  -3.349  47.006  1.00  0.00     0.278 C 
ENDBRANCH   4   9
ENDBRANCH   1   3
BRANCH   1  11
ATOM     11  S   UNL     1      -0.566  -8.011  44.035  1.00  0.00     0.261 S 
ATOM     12  O   UNL     1      -1.934  -7.536  44.076  1.00  0.00    -0.201 OA
ATOM     13  O   UNL     1      -0.215  -9.232  43.342  1.00  0.00    -0.201 OA
BRANCH  11  14
ATOM     14  C   UNL     1      -0.004  -8.163  45.718  1.00  0.00     0.090 A 
ATOM     15  C   UNL     1       0.923  -9.142  46.053  1.00  0.00     0.024 A 
ATOM     16  C   UNL     1      -0.472  -7.268  46.685  1.00  0.00     0.050 A 
ATOM     17  C   UNL     1       1.356  -9.242  47.375  1.00  0.00     0.030 A 
ATOM     18  C   UNL     1      -0.054  -7.374  48.023  1.00  0.00     0.069 A 
ATOM     19  C   UNL     1       0.876  -8.372  48.374  1.00  0.00     0.068 A 
ATOM     20  N   UNL     1      -0.566  -6.490  49.013  1.00  0.00    -0.305 N 
ATOM     21  N   UNL     1       1.322  -8.492  49.718  1.00  0.00    -0.305 N 
ATOM     22  C   UNL     1      -0.169  -6.573  50.346  1.00  0.00     0.316 A 
ATOM     23  C   UNL     1       0.859  -7.646  50.724  1.00  0.00     0.316 A 
ATOM     24  O   UNL     1      -0.597  -5.835  51.230  1.00  0.00    -0.263 OA
ATOM     25  O   UNL     1       1.227  -7.719  51.894  1.00  0.00    -0.263 OA
ATOM     26  C   UNL     1      -1.550  -5.477  48.660  1.00  0.00     0.154 C 
ATOM     27  C   UNL     1       2.295  -9.510  50.085  1.00  0.00     0.154 C 
ENDBRANCH  11  14
ENDBRANCH   1  11
TORSDOF 4
ENDMDL
MODEL 7
REMARK VINA RESULT:    -9.854      1.810      7.042
REMARK INTER + INTRA:         -11.563
REMARK INTER:                 -10.986
REMARK INTRA:                  -0.577
REMARK UNBOUND:                 0.596
REMARK SMILES COc1cccc(NS(=O)(=O)c2ccc3c(c2)n(C)c(=O)c(=O)n3C)c1
REMARK SMILES IDX 8 1 7 3 3 4 4 5 26 6 5 7 6 8 2 9 1 10 9 11 10 12 11 13 12 14
REMARK SMILES IDX 13 15 17 16 14 17 16 18 15 19 18 20 24 21 20 22 22 23 21 24
REMARK SMILES IDX 23 25 19 26 25 27
REMARK H PARENT 8 2
ROOT
ATOM      1  N   UNL     1       3.528  -8.540  48.248  1.00  0.00    -0.279 N 
ATOM      2  H   UNL     1       3.999  -7.647  48.383  1.00  0.00     0.180 HD
ENDROOT
BRANCH   1   3
ATOM      3  C   UNL     1       2.469  -8.604  47.300  1.00  0.00     0.052 A 
ATOM      4  C   UNL     1       1.591  -8.156  45.091  1.00  0.00     0.120 A 
ATOM      5  C   UNL     1       0.340  -8.611  45.515  1.00  0.00     0.046 A 
ATOM      6  C   UNL     1       2.659  -8.160  45.989  1.00  0.00     0.073 A 
ATOM      7  C   UNL     1       0.152  -9.068  46.820  1.00  0.00     0.006 A 
ATOM      8  C   UNL     1       1.220  -9.065  47.716  1.00  0.00     0.027 A 
BRANCH   4   9
ATOM      9  O   UNL     1       1.634  -7.729  43.793  1.00  0.00    -0.497 OA
ATOM     10  C   UNL     1       0.468  -7.938  43.005  1.00  0.00     0.278 C 
ENDBRANCH   4   9
ENDBRANCH   1   3
BRANCH   1  11
ATOM     11  S   UNL     1       4.579  -9.852  48.408  1.00  0.00     0.261 S 
ATOM     12  O   UNL     1       5.002 -10.197  47.067  1.00  0.00    -0.201 OA
ATOM     13  O   UNL     1       5.542  -9.582  49.454  1.00  0.00    -0.201 OA
BRANCH  11  14
ATOM     14  C   UNL     1       3.510 -11.156  48.981  1.00  0.00     0.090 A 
ATOM     15  C   UNL     1       2.794 -10.996  50.161  1.00  0.00     0.024 A 
ATOM     16  C   UNL     1       3.369 -12.318  48.217  1.00  0.00     0.050 A 
ATOM     17  C   UNL     1       1.957 -12.026  50.591  1.00  0.00     0.030 A 
ATOM     18  C   UNL     1       2.541 -13.368  48.653  1.00  0.00     0.069 A 
ATOM     19  C   UNL     1       1.821 -13.219  49.855  1.00  0.00     0.068 A 
ATOM     20  N   UNL     1       2.434 -14.567  47.896  1.00  0.00    -0.305 N 
ATOM     21  N   UNL     1       0.970 -14.262  50.311  1.00  0.00    -0.305 N 
ATOM     22  C   UNL     1       1.621 -15.623  48.305  1.00  0.00     0.316 A 
ATOM     23  C   UNL     1       0.822 -15.453  49.602  1.00  0.00     0.316 A 
ATOM     24  O   UNL     1       1.513 -16.677  47.683  1.00  0.00    -0.263 OA
ATOM     25  O   UNL     1       0.091 -16.372  49.965  1.00  0.00    -0.263 OA
ATOM     26  C   UNL     1       3.199 -14.736  46.670  1.00  0.00     0.154 C 
ATOM     27  C   UNL     1       0.211 -14.109  51.543  1.00  0.00     0.154 C 
ENDBRANCH  11  14
ENDBRANCH   1  11
TORSDOF 4
ENDMDL
MODEL 8
REMARK VINA RESULT:    -9.847      1.898      7.188
REMARK INTER + INTRA:         -11.554
REMARK INTER:                 -10.967
REMARK INTRA:                  -0.587
REMARK UNBOUND:                 0.596
REMARK SMILES COc1cccc(NS(=O)(=O)c2ccc3c(c2)n(C)c(=O)c(=O)n3C)c1
REMARK SMILES IDX 8 1 7 3 3 4 4 5 26 6 5 7 6 8 2 9 1 10 9 11 10 12 11 13 12 14
REMARK SMILES IDX 13 15 17 16 14 17 16 18 15 19 18 20 24 21 20 22 22 23 21 24
REMARK SMILES IDX 23 25 19 26 25 27
REMARK H PARENT 8 2
ROOT
ATOM      1  N   UNL     1       3.930  -9.365  49.118  1.00  0.00    -0.279 N 
ATOM      2  H   UNL     1       4.275  -8.517  49.564  1.00  0.00     0.180 HD
ENDROOT
BRANCH   1   3
ATOM      3  C   UNL     1       3.032  -9.228  48.022  1.00  0.00     0.052 A 
ATOM      4  C   UNL     1       2.520  -8.390  45.811  1.00  0.00     0.120 A 
ATOM      5  C   UNL     1       1.210  -8.853  45.958  1.00  0.00     0.046 A 
ATOM      6  C   UNL     1       3.434  -8.586  46.847  1.00  0.00     0.073 A 
ATOM      7  C   UNL     1       0.812  -9.507  47.124  1.00  0.00     0.006 A 
ATOM      8  C   UNL     1       1.725  -9.696  48.160  1.00  0.00     0.027 A 
BRANCH   4   9
ATOM      9  O   UNL     1       2.775  -7.761  44.624  1.00  0.00    -0.497 OA
ATOM     10  C   UNL     1       1.748  -6.926  44.103  1.00  0.00     0.278 C 
ENDBRANCH   4   9
ENDBRANCH   1   3
BRANCH   1  11
ATOM     11  S   UNL     1       5.084 -10.597  49.097  1.00  0.00     0.261 S 
ATOM     12  O   UNL     1       5.962 -10.308  47.982  1.00  0.00    -0.201 OA
ATOM     13  O   UNL     1       5.605 -10.801  50.431  1.00  0.00    -0.201 OA
BRANCH  11  14
ATOM     14  C   UNL     1       4.129 -12.035  48.662  1.00  0.00     0.090 A 
ATOM     15  C   UNL     1       4.395 -12.711  47.477  1.00  0.00     0.024 A 
ATOM     16  C   UNL     1       3.141 -12.498  49.535  1.00  0.00     0.050 A 
ATOM     17  C   UNL     1       3.641 -13.840  47.155  1.00  0.00     0.030 A 
ATOM     18  C   UNL     1       2.364 -13.624  49.211  1.00  0.00     0.069 A 
ATOM     19  C   UNL     1       2.619 -14.308  48.005  1.00  0.00     0.068 A 
ATOM     20  N   UNL     1       1.330 -14.065  50.081  1.00  0.00    -0.305 N 
ATOM     21  N   UNL     1       1.855 -15.454  47.659  1.00  0.00    -0.305 N 
ATOM     22  C   UNL     1       0.545 -15.178  49.783  1.00  0.00     0.316 A 
ATOM     23  C   UNL     1       0.836 -15.935  48.482  1.00  0.00     0.316 A 
ATOM     24  O   UNL     1      -0.364 -15.582  50.504  1.00  0.00    -0.263 OA
ATOM     25  O   UNL     1       0.160 -16.925  48.215  1.00  0.00    -0.263 OA
ATOM     26  C   UNL     1       1.043 -13.344  51.312  1.00  0.00     0.154 C 
ATOM     27  C   UNL     1       2.123 -16.176  46.424  1.00  0.00     0.154 C 
ENDBRANCH  11  14
ENDBRANCH   1  11
TORSDOF 4
ENDMDL
MODEL 9
REMARK VINA RESULT:    -9.673      3.318      7.499
REMARK INTER + INTRA:         -11.339
REMARK INTER:                 -11.475
REMARK INTRA:                   0.136
REMARK UNBOUND:                 0.596
REMARK SMILES COc1cccc(NS(=O)(=O)c2ccc3c(c2)n(C)c(=O)c(=O)n3C)c1
REMARK SMILES IDX 8 1 7 3 3 4 4 5 26 6 5 7 6 8 2 9 1 10 9 11 10 12 11 13 12 14
REMARK SMILES IDX 13 15 17 16 14 17 16 18 15 19 18 20 24 21 20 22 22 23 21 24
REMARK SMILES IDX 23 25 19 26 25 27
REMARK H PARENT 8 2
ROOT
ATOM      1  N   UNL     1       2.603  -6.043  45.712  1.00  0.00    -0.279 N 
ATOM      2  H   UNL     1       2.845  -5.078  45.933  1.00  0.00     0.180 HD
ENDROOT
BRANCH   1   3
ATOM      3  C   UNL     1       1.256  -6.331  45.352  1.00  0.00     0.052 A 
ATOM      4  C   UNL     1      -0.993  -6.983  45.961  1.00  0.00     0.120 A 
ATOM      5  C   UNL     1      -1.327  -7.030  44.606  1.00  0.00     0.046 A 
ATOM      6  C   UNL     1       0.305  -6.625  46.332  1.00  0.00     0.073 A 
ATOM      7  C   UNL     1      -0.382  -6.723  43.627  1.00  0.00     0.006 A 
ATOM      8  C   UNL     1       0.914  -6.373  44.000  1.00  0.00     0.027 A 
BRANCH   4   9
ATOM      9  O   UNL     1      -2.009  -7.314  46.813  1.00  0.00    -0.497 OA
ATOM     10  C   UNL     1      -1.909  -6.840  48.151  1.00  0.00     0.278 C 
ENDBRANCH   4   9
ENDBRANCH   1   3
BRANCH   1  11
ATOM     11  S   UNL     1       3.862  -6.860  44.939  1.00  0.00     0.261 S 
ATOM     12  O   UNL     1       3.308  -7.380  43.705  1.00  0.00    -0.201 OA
ATOM     13  O   UNL     1       5.052  -6.039  44.941  1.00  0.00    -0.201 OA
BRANCH  11  14
ATOM     14  C   UNL     1       4.159  -8.248  46.014  1.00  0.00     0.090 A 
ATOM     15  C   UNL     1       5.215  -9.113  45.753  1.00  0.00     0.024 A 
ATOM     16  C   UNL     1       3.351  -8.436  47.138  1.00  0.00     0.050 A 
ATOM     17  C   UNL     1       5.438 -10.191  46.609  1.00  0.00     0.030 A 
ATOM     18  C   UNL     1       3.556  -9.531  47.997  1.00  0.00     0.069 A 
ATOM     19  C   UNL     1       4.617 -10.419  47.732  1.00  0.00     0.068 A 
ATOM     20  N   UNL     1       2.703  -9.744  49.114  1.00  0.00    -0.305 N 
ATOM     21  N   UNL     1       4.852 -11.527  48.590  1.00  0.00    -0.305 N 
ATOM     22  C   UNL     1       2.885 -10.821  49.981  1.00  0.00     0.316 A 
ATOM     23  C   UNL     1       4.052 -11.776  49.705  1.00  0.00     0.316 A 
ATOM     24  O   UNL     1       2.162 -11.043  50.949  1.00  0.00    -0.263 OA
ATOM     25  O   UNL     1       4.230 -12.721  50.470  1.00  0.00    -0.263 OA
ATOM     26  C   UNL     1       1.588  -8.846  49.374  1.00  0.00     0.154 C 
ATOM     27  C   UNL     1       5.955 -12.440  48.333  1.00  0.00     0.154 C 
ENDBRANCH  11  14
ENDBRANCH   1  11
TORSDOF 4
ENDMDL
MODEL 10
REMARK VINA RESULT:    -9.559     11.956     14.301
REMARK INTER + INTRA:         -11.199
REMARK INTER:                 -10.470
REMARK INTRA:                  -0.729
REMARK UNBOUND:                 0.596
REMARK SMILES COc1cccc(NS(=O)(=O)c2ccc3c(c2)n(C)c(=O)c(=O)n3C)c1
REMARK SMILES IDX 8 1 7 3 3 4 4 5 26 6 5 7 6 8 2 9 1 10 9 11 10 12 11 13 12 14
REMARK SMILES IDX 13 15 17 16 14 17 16 18 15 19 18 20 24 21 20 22 22 23 21 24
REMARK SMILES IDX 23 25 19 26 25 27
REMARK H PARENT 8 2
ROOT
ATOM      1  N   UNL     1      -7.847 -11.178  41.478  1.00  0.00    -0.279 N 
ATOM      2  H   UNL     1      -7.055 -11.514  42.023  1.00  0.00     0.180 HD
ENDROOT
BRANCH   1   3
ATOM      3  C   UNL     1      -7.725  -9.923  40.819  1.00  0.00     0.052 A 
ATOM      4  C   UNL     1      -6.439  -8.351  39.504  1.00  0.00     0.120 A 
ATOM      5  C   UNL     1      -7.458  -7.409  39.666  1.00  0.00     0.046 A 
ATOM      6  C   UNL     1      -6.580  -9.614  40.080  1.00  0.00     0.073 A 
ATOM      7  C   UNL     1      -8.608  -7.720  40.392  1.00  0.00     0.006 A 
ATOM      8  C   UNL     1      -8.743  -8.980  40.971  1.00  0.00     0.027 A 
BRANCH   4   9
ATOM      9  O   UNL     1      -5.366  -7.914  38.779  1.00  0.00    -0.497 OA
ATOM     10  C   UNL     1      -4.877  -8.783  37.764  1.00  0.00     0.278 C 
ENDBRANCH   4   9
ENDBRANCH   1   3
BRANCH   1  11
ATOM     11  S   UNL     1      -8.686 -12.434  40.721  1.00  0.00     0.261 S 
ATOM     12  O   UNL     1      -8.518 -13.598  41.567  1.00  0.00    -0.201 OA
ATOM     13  O   UNL     1     -10.000 -11.975  40.326  1.00  0.00    -0.201 OA
BRANCH  11  14
ATOM     14  C   UNL     1      -7.740 -12.713  39.239  1.00  0.00     0.090 A 
ATOM     15  C   UNL     1      -6.552 -13.431  39.300  1.00  0.00     0.024 A 
ATOM     16  C   UNL     1      -8.219 -12.239  38.014  1.00  0.00     0.050 A 
ATOM     17  C   UNL     1      -5.827 -13.646  38.128  1.00  0.00     0.030 A 
ATOM     18  C   UNL     1      -7.486 -12.434  36.831  1.00  0.00     0.069 A 
ATOM     19  C   UNL     1      -6.275 -13.151  36.886  1.00  0.00     0.068 A 
ATOM     20  N   UNL     1      -7.955 -11.912  35.594  1.00  0.00    -0.305 N 
ATOM     21  N   UNL     1      -5.521 -13.371  35.702  1.00  0.00    -0.305 N 
ATOM     22  C   UNL     1      -7.248 -12.091  34.406  1.00  0.00     0.316 A 
ATOM     23  C   UNL     1      -5.940 -12.889  34.463  1.00  0.00     0.316 A 
ATOM     24  O   UNL     1      -7.616 -11.645  33.322  1.00  0.00    -0.263 OA
ATOM     25  O   UNL     1      -5.315 -13.066  33.420  1.00  0.00    -0.263 OA
ATOM     26  C   UNL     1      -9.191 -11.145  35.538  1.00  0.00     0.154 C 
ATOM     27  C   UNL     1      -4.276 -14.125  35.748  1.00  0.00     0.154 C 
ENDBRANCH  11  14
ENDBRANCH   1  11
TORSDOF 4
ENDMDL
