MODEL 1
REMARK VINA RESULT:    -8.259      0.000      0.000
REMARK INTER + INTRA:         -10.573
REMARK INTER:                 -10.190
REMARK INTRA:                  -0.384
REMARK UNBOUND:                -0.384
REMARK SMILES CCS(=O)(=O)N1CCN(S(=O)(=O)c2ccc(F)cc2)CC1
REMARK SMILES IDX 6 1 7 2 8 3 9 4 20 5 21 6 3 7 4 8 5 9 2 10 1 11 10 12 11 13
REMARK SMILES IDX 12 14 13 15 14 16 19 17 15 18 18 19 16 20 17 21
REMARK H PARENT
ROOT
ATOM      1  N   UNL     1       2.827  -6.428  44.216  1.00  0.00    -0.199 NA
ATOM      2  C   UNL     1       1.866  -7.373  43.588  1.00  0.00     0.119 C 
ATOM      3  C   UNL     1       0.499  -6.709  43.388  1.00  0.00     0.119 C 
ATOM      4  N   UNL     1      -0.111  -6.274  44.689  1.00  0.00    -0.195 NA
ATOM      5  C   UNL     1       0.907  -5.841  45.704  1.00  0.00     0.119 C 
ATOM      6  C   UNL     1       2.216  -5.368  45.062  1.00  0.00     0.119 C 
ENDROOT
BRANCH   1   7
ATOM      7  S   UNL     1       4.353  -7.014  44.620  1.00  0.00     0.213 S 
ATOM      8  O   UNL     1       5.078  -5.934  45.252  1.00  0.00    -0.212 OA
ATOM      9  O   UNL     1       4.877  -7.695  43.455  1.00  0.00    -0.212 OA
BRANCH   7  10
ATOM     10  C   UNL     1       3.983  -8.246  45.871  1.00  0.00     0.151 C 
ATOM     11  C   UNL     1       5.117  -9.244  46.009  1.00  0.00     0.022 C 
ENDBRANCH   7  10
ENDBRANCH   1   7
BRANCH   4  12
ATOM     12  S   UNL     1      -1.279  -7.332  45.346  1.00  0.00     0.243 S 
ATOM     13  O   UNL     1      -1.814  -8.132  44.267  1.00  0.00    -0.207 OA
ATOM     14  O   UNL     1      -2.138  -6.527  46.189  1.00  0.00    -0.207 OA
BRANCH  12  15
ATOM     15  C   UNL     1      -0.309  -8.406  46.372  1.00  0.00     0.082 A 
ATOM     16  C   UNL     1      -0.317  -8.204  47.759  1.00  0.00     0.025 A 
ATOM     17  C   UNL     1       0.454  -9.428  45.798  1.00  0.00     0.025 A 
ATOM     18  C   UNL     1       0.440  -9.044  48.576  1.00  0.00     0.040 A 
ATOM     19  C   UNL     1       1.208 -10.263  46.624  1.00  0.00     0.040 A 
ATOM     20  C   UNL     1       1.193 -10.064  48.002  1.00  0.00     0.123 A 
ATOM     21  F   UNL     1       1.918 -10.869  48.789  1.00  0.00    -0.207 F 
ENDBRANCH  12  15
ENDBRANCH   4  12
TORSDOF 4
ENDMDL
MODEL 2
REMARK VINA RESULT:    -8.009      5.005      6.571
REMARK INTER + INTRA:         -10.266
REMARK INTER:                  -9.897
REMARK INTRA:                  -0.369
REMARK UNBOUND:                -0.384
REMARK SMILES CCS(=O)(=O)N1CCN(S(=O)(=O)c2ccc(F)cc2)CC1
REMARK SMILES IDX 6 1 7 2 8 3 9 4 20 5 21 6 3 7 4 8 5 9 2 10 1 11 10 12 11 13
REMARK SMILES IDX 12 14 13 15 14 16 19 17 15 18 18 19 16 20 17 21
REMARK H PARENT
ROOT
ATOM      1  N   UNL     1       2.024  -8.693  47.912  1.00  0.00    -0.199 NA
ATOM      2  C   UNL     1       2.994  -8.862  49.027  1.00  0.00     0.119 C 
ATOM      3  C   UNL     1       3.923 -10.054  48.767  1.00  0.00     0.119 C 
ATOM      4  N   UNL     1       3.163 -11.344  48.656  1.00  0.00    -0.195 NA
ATOM      5  C   UNL     1       1.799 -11.178  48.050  1.00  0.00     0.119 C 
ATOM      6  C   UNL     1       1.697  -9.935  47.161  1.00  0.00     0.119 C 
ENDROOT
BRANCH   1   7
ATOM      7  S   UNL     1       0.845  -7.502  48.072  1.00  0.00     0.213 S 
ATOM      8  O   UNL     1       1.193  -6.426  47.170  1.00  0.00    -0.212 OA
ATOM      9  O   UNL     1       0.655  -7.269  49.488  1.00  0.00    -0.212 OA
BRANCH   7  10
ATOM     10  C   UNL     1      -0.622  -8.313  47.434  1.00  0.00     0.151 C 
ATOM     11  C   UNL     1      -1.796  -7.354  47.376  1.00  0.00     0.022 C 
ENDBRANCH   7  10
ENDBRANCH   1   7
BRANCH   4  12
ATOM     12  S   UNL     1       3.140 -12.310  50.064  1.00  0.00     0.243 S 
ATOM     13  O   UNL     1       2.354 -11.623  51.064  1.00  0.00    -0.207 OA
ATOM     14  O   UNL     1       4.510 -12.703  50.318  1.00  0.00    -0.207 OA
BRANCH  12  15
ATOM     15  C   UNL     1       2.218 -13.736  49.551  1.00  0.00     0.082 A 
ATOM     16  C   UNL     1       1.091 -14.115  50.291  1.00  0.00     0.025 A 
ATOM     17  C   UNL     1       2.622 -14.469  48.430  1.00  0.00     0.025 A 
ATOM     18  C   UNL     1       0.357 -15.234  49.896  1.00  0.00     0.040 A 
ATOM     19  C   UNL     1       1.882 -15.587  48.042  1.00  0.00     0.040 A 
ATOM     20  C   UNL     1       0.758 -15.957  48.776  1.00  0.00     0.123 A 
ATOM     21  F   UNL     1       0.051 -17.030  48.399  1.00  0.00    -0.207 F 
ENDBRANCH  12  15
ENDBRANCH   4  12
TORSDOF 4
ENDMDL
MODEL 3
REMARK VINA RESULT:    -7.942      4.036      5.524
REMARK INTER + INTRA:         -10.183
REMARK INTER:                  -9.769
REMARK INTRA:                  -0.414
REMARK UNBOUND:                -0.384
REMARK SMILES CCS(=O)(=O)N1CCN(S(=O)(=O)c2ccc(F)cc2)CC1
REMARK SMILES IDX 6 1 7 2 8 3 9 4 20 5 21 6 3 7 4 8 5 9 2 10 1 11 10 12 11 13
REMARK SMILES IDX 12 14 13 15 14 16 19 17 15 18 18 19 16 20 17 21
REMARK H PARENT
ROOT
ATOM      1  N   UNL     1       0.969  -7.844  46.975  1.00  0.00    -0.199 NA
ATOM      2  C   UNL     1       1.110  -9.270  46.580  1.00  0.00     0.119 C 
ATOM      3  C   UNL     1       0.863 -10.196  47.777  1.00  0.00     0.119 C 
ATOM      4  N   UNL     1       1.845  -9.955  48.886  1.00  0.00    -0.195 NA
ATOM      5  C   UNL     1       2.278  -8.521  48.993  1.00  0.00     0.119 C 
ATOM      6  C   UNL     1       1.248  -7.549  48.406  1.00  0.00     0.119 C 
ENDROOT
BRANCH   1   7
ATOM      7  S   UNL     1       1.316  -6.671  45.818  1.00  0.00     0.213 S 
ATOM      8  O   UNL     1       2.378  -7.188  44.983  1.00  0.00    -0.212 OA
ATOM      9  O   UNL     1       1.447  -5.406  46.510  1.00  0.00    -0.212 OA
BRANCH   7  10
ATOM     10  C   UNL     1      -0.189  -6.624  44.841  1.00  0.00     0.151 C 
ATOM     11  C   UNL     1       0.084  -7.003  43.398  1.00  0.00     0.022 C 
ENDBRANCH   7  10
ENDBRANCH   1   7
BRANCH   4  12
ATOM     12  S   UNL     1       3.160 -11.042  48.956  1.00  0.00     0.243 S 
ATOM     13  O   UNL     1       3.921 -10.747  50.149  1.00  0.00    -0.207 OA
ATOM     14  O   UNL     1       3.775 -11.031  47.645  1.00  0.00    -0.207 OA
BRANCH  12  15
ATOM     15  C   UNL     1       2.366 -12.608  49.206  1.00  0.00     0.082 A 
ATOM     16  C   UNL     1       2.593 -13.636  48.281  1.00  0.00     0.025 A 
ATOM     17  C   UNL     1       1.523 -12.803  50.306  1.00  0.00     0.025 A 
ATOM     18  C   UNL     1       1.975 -14.873  48.469  1.00  0.00     0.040 A 
ATOM     19  C   UNL     1       0.910 -14.043  50.485  1.00  0.00     0.040 A 
ATOM     20  C   UNL     1       1.142 -15.065  49.568  1.00  0.00     0.123 A 
ATOM     21  F   UNL     1       0.552 -16.254  49.745  1.00  0.00    -0.207 F 
ENDBRANCH  12  15
ENDBRANCH   4  12
TORSDOF 4
ENDMDL
MODEL 4
REMARK VINA RESULT:    -7.887     13.674     15.538
REMARK INTER + INTRA:         -10.115
REMARK INTER:                  -9.906
REMARK INTRA:                  -0.209
REMARK UNBOUND:                -0.384
REMARK SMILES CCS(=O)(=O)N1CCN(S(=O)(=O)c2ccc(F)cc2)CC1
REMARK SMILES IDX 6 1 7 2 8 3 9 4 20 5 21 6 3 7 4 8 5 9 2 10 1 11 10 12 11 13
REMARK SMILES IDX 12 14 13 15 14 16 19 17 15 18 18 19 16 20 17 21
REMARK H PARENT
ROOT
ATOM      1  N   UNL     1       1.763  -1.007  33.657  1.00  0.00    -0.199 NA
ATOM      2  C   UNL     1       1.636  -0.711  32.205  1.00  0.00     0.119 C 
ATOM      3  C   UNL     1       0.402   0.157  31.930  1.00  0.00     0.119 C 
ATOM      4  N   UNL     1      -0.869  -0.526  32.346  1.00  0.00    -0.195 NA
ATOM      5  C   UNL     1      -0.700  -1.412  33.545  1.00  0.00     0.119 C 
ATOM      6  C   UNL     1       0.487  -0.999  34.421  1.00  0.00     0.119 C 
ENDROOT
BRANCH   1   7
ATOM      7  S   UNL     1       2.997  -2.045  34.140  1.00  0.00     0.213 S 
ATOM      8  O   UNL     1       3.618  -2.566  32.942  1.00  0.00    -0.212 OA
ATOM      9  O   UNL     1       2.451  -2.923  35.153  1.00  0.00    -0.212 OA
BRANCH   7  10
ATOM     10  C   UNL     1       4.160  -0.930  34.931  1.00  0.00     0.151 C 
ATOM     11  C   UNL     1       4.903  -0.096  33.905  1.00  0.00     0.022 C 
ENDBRANCH   7  10
ENDBRANCH   1   7
BRANCH   4  12
ATOM     12  S   UNL     1      -1.743  -1.284  31.090  1.00  0.00     0.243 S 
ATOM     13  O   UNL     1      -2.152  -0.264  30.151  1.00  0.00    -0.207 OA
ATOM     14  O   UNL     1      -2.706  -2.158  31.725  1.00  0.00    -0.207 OA
BRANCH  12  15
ATOM     15  C   UNL     1      -0.507  -2.276  30.291  1.00  0.00     0.082 A 
ATOM     16  C   UNL     1       0.106  -1.786  29.130  1.00  0.00     0.025 A 
ATOM     17  C   UNL     1      -0.162  -3.527  30.814  1.00  0.00     0.025 A 
ATOM     18  C   UNL     1       1.080  -2.557  28.495  1.00  0.00     0.040 A 
ATOM     19  C   UNL     1       0.813  -4.290  30.172  1.00  0.00     0.040 A 
ATOM     20  C   UNL     1       1.425  -3.798  29.021  1.00  0.00     0.123 A 
ATOM     21  F   UNL     1       2.362  -4.535  28.410  1.00  0.00    -0.207 F 
ENDBRANCH  12  15
ENDBRANCH   4  12
TORSDOF 4
ENDMDL
MODEL 5
REMARK VINA RESULT:    -7.676     14.360     16.382
REMARK INTER + INTRA:          -9.855
REMARK INTER:                  -9.528
REMARK INTRA:                  -0.326
REMARK UNBOUND:                -0.384
REMARK SMILES CCS(=O)(=O)N1CCN(S(=O)(=O)c2ccc(F)cc2)CC1
REMARK SMILES IDX 6 1 7 2 8 3 9 4 20 5 21 6 3 7 4 8 5 9 2 10 1 11 10 12 11 13
REMARK SMILES IDX 12 14 13 15 14 16 19 17 15 18 18 19 16 20 17 21
REMARK H PARENT
ROOT
ATOM      1  N   UNL     1       3.282  -0.988  33.481  1.00  0.00    -0.199 NA
ATOM      2  C   UNL     1       2.349  -0.219  32.615  1.00  0.00     0.119 C 
ATOM      3  C   UNL     1       0.933  -0.804  32.685  1.00  0.00     0.119 C 
ATOM      4  N   UNL     1       0.888  -2.228  32.212  1.00  0.00    -0.195 NA
ATOM      5  C   UNL     1       2.142  -2.994  32.521  1.00  0.00     0.119 C 
ATOM      6  C   UNL     1       2.911  -2.410  33.711  1.00  0.00     0.119 C 
ENDROOT
BRANCH   1   7
ATOM      7  S   UNL     1       4.911  -0.564  33.448  1.00  0.00     0.213 S 
ATOM      8  O   UNL     1       5.558  -1.409  32.467  1.00  0.00    -0.212 OA
ATOM      9  O   UNL     1       5.372  -0.510  34.819  1.00  0.00    -0.212 OA
BRANCH   7  10
ATOM     10  C   UNL     1       4.869   1.109  32.802  1.00  0.00     0.151 C 
ATOM     11  C   UNL     1       5.146   2.124  33.895  1.00  0.00     0.022 C 
ENDBRANCH   7  10
ENDBRANCH   1   7
BRANCH   4  12
ATOM     12  S   UNL     1       0.363  -2.454  30.604  1.00  0.00     0.243 S 
ATOM     13  O   UNL     1      -0.562  -3.565  30.588  1.00  0.00    -0.207 OA
ATOM     14  O   UNL     1       1.551  -2.447  29.776  1.00  0.00    -0.207 OA
BRANCH  12  15
ATOM     15  C   UNL     1      -0.572  -0.981  30.281  1.00  0.00     0.082 A 
ATOM     16  C   UNL     1      -1.864  -0.871  30.811  1.00  0.00     0.025 A 
ATOM     17  C   UNL     1      -0.022   0.044  29.504  1.00  0.00     0.025 A 
ATOM     18  C   UNL     1      -2.607   0.284  30.565  1.00  0.00     0.040 A 
ATOM     19  C   UNL     1      -0.773   1.196  29.263  1.00  0.00     0.040 A 
ATOM     20  C   UNL     1      -2.055   1.305  29.796  1.00  0.00     0.123 A 
ATOM     21  F   UNL     1      -2.771   2.413  29.564  1.00  0.00    -0.207 F 
ENDBRANCH  12  15
ENDBRANCH   4  12
TORSDOF 4
ENDMDL
MODEL 6
REMARK VINA RESULT:    -7.667      4.478      5.402
REMARK INTER + INTRA:          -9.843
REMARK INTER:                  -9.420
REMARK INTRA:                  -0.423
REMARK UNBOUND:                -0.384
REMARK SMILES CCS(=O)(=O)N1CCN(S(=O)(=O)c2ccc(F)cc2)CC1
REMARK SMILES IDX 6 1 7 2 8 3 9 4 20 5 21 6 3 7 4 8 5 9 2 10 1 11 10 12 11 13
REMARK SMILES IDX 12 14 13 15 14 16 19 17 15 18 18 19 16 20 17 21
REMARK H PARENT
ROOT
ATOM      1  N   UNL     1       4.490 -10.786  48.514  1.00  0.00    -0.199 NA
ATOM      2  C   UNL     1       3.578 -10.806  47.339  1.00  0.00     0.119 C 
ATOM      3  C   UNL     1       3.279  -9.382  46.855  1.00  0.00     0.119 C 
ATOM      4  N   UNL     1       2.602  -8.560  47.914  1.00  0.00    -0.195 NA
ATOM      5  C   UNL     1       3.037  -8.913  49.307  1.00  0.00     0.119 C 
ATOM      6  C   UNL     1       4.429  -9.553  49.345  1.00  0.00     0.119 C 
ENDROOT
BRANCH   1   7
ATOM      7  S   UNL     1       4.843 -12.255  49.257  1.00  0.00     0.213 S 
ATOM      8  O   UNL     1       4.164 -12.267  50.535  1.00  0.00    -0.212 OA
ATOM      9  O   UNL     1       6.273 -12.456  49.159  1.00  0.00    -0.212 OA
BRANCH   7  10
ATOM     10  C   UNL     1       4.033 -13.443  48.184  1.00  0.00     0.151 C 
ATOM     11  C   UNL     1       5.041 -14.164  47.308  1.00  0.00     0.022 C 
ENDBRANCH   7  10
ENDBRANCH   1   7
BRANCH   4  12
ATOM     12  S   UNL     1       0.906  -8.428  47.773  1.00  0.00     0.243 S 
ATOM     13  O   UNL     1       0.488  -7.248  48.496  1.00  0.00    -0.207 OA
ATOM     14  O   UNL     1       0.363  -9.734  48.078  1.00  0.00    -0.207 OA
BRANCH  12  15
ATOM     15  C   UNL     1       0.677  -8.100  46.044  1.00  0.00     0.082 A 
ATOM     16  C   UNL     1       0.981  -6.824  45.552  1.00  0.00     0.025 A 
ATOM     17  C   UNL     1       0.194  -9.103  45.196  1.00  0.00     0.025 A 
ATOM     18  C   UNL     1       0.806  -6.556  44.193  1.00  0.00     0.040 A 
ATOM     19  C   UNL     1       0.023  -8.825  43.839  1.00  0.00     0.040 A 
ATOM     20  C   UNL     1       0.331  -7.558  43.352  1.00  0.00     0.123 A 
ATOM     21  F   UNL     1       0.167  -7.297  42.048  1.00  0.00    -0.207 F 
ENDBRANCH  12  15
ENDBRANCH   4  12
TORSDOF 4
ENDMDL
MODEL 7
REMARK VINA RESULT:    -7.665      3.832      5.491
REMARK INTER + INTRA:          -9.841
REMARK INTER:                  -9.307
REMARK INTRA:                  -0.534
REMARK UNBOUND:                -0.384
REMARK SMILES CCS(=O)(=O)N1CCN(S(=O)(=O)c2ccc(F)cc2)CC1
REMARK SMILES IDX 6 1 7 2 8 3 9 4 20 5 21 6 3 7 4 8 5 9 2 10 1 11 10 12 11 13
REMARK SMILES IDX 12 14 13 15 14 16 19 17 15 18 18 19 16 20 17 21
REMARK H PARENT
ROOT
ATOM      1  N   UNL     1       1.447  -7.930  45.835  1.00  0.00    -0.199 NA
ATOM      2  C   UNL     1       2.665  -7.834  46.683  1.00  0.00     0.119 C 
ATOM      3  C   UNL     1       3.410  -9.174  46.725  1.00  0.00     0.119 C 
ATOM      4  N   UNL     1       2.563 -10.269  47.306  1.00  0.00    -0.195 NA
ATOM      5  C   UNL     1       1.102 -10.115  46.999  1.00  0.00     0.119 C 
ATOM      6  C   UNL     1       0.850  -9.289  45.733  1.00  0.00     0.119 C 
ENDROOT
BRANCH   1   7
ATOM      7  S   UNL     1       0.436  -6.586  45.760  1.00  0.00     0.213 S 
ATOM      8  O   UNL     1       0.650  -5.955  44.476  1.00  0.00    -0.212 OA
ATOM      9  O   UNL     1       0.597  -5.854  46.998  1.00  0.00    -0.212 OA
BRANCH   7  10
ATOM     10  C   UNL     1      -1.199  -7.325  45.753  1.00  0.00     0.151 C 
ATOM     11  C   UNL     1      -1.871  -7.181  47.106  1.00  0.00     0.022 C 
ENDBRANCH   7  10
ENDBRANCH   1   7
BRANCH   4  12
ATOM     12  S   UNL     1       2.851 -10.629  48.950  1.00  0.00     0.243 S 
ATOM     13  O   UNL     1       1.910  -9.871  49.745  1.00  0.00    -0.207 OA
ATOM     14  O   UNL     1       4.279 -10.512  49.155  1.00  0.00    -0.207 OA
BRANCH  12  15
ATOM     15  C   UNL     1       2.391 -12.338  49.068  1.00  0.00     0.082 A 
ATOM     16  C   UNL     1       2.812 -13.222  48.067  1.00  0.00     0.025 A 
ATOM     17  C   UNL     1       1.614 -12.785  50.143  1.00  0.00     0.025 A 
ATOM     18  C   UNL     1       2.458 -14.569  48.150  1.00  0.00     0.040 A 
ATOM     19  C   UNL     1       1.264 -14.134  50.218  1.00  0.00     0.040 A 
ATOM     20  C   UNL     1       1.690 -15.011  49.224  1.00  0.00     0.123 A 
ATOM     21  F   UNL     1       1.353 -16.305  49.301  1.00  0.00    -0.207 F 
ENDBRANCH  12  15
ENDBRANCH   4  12
TORSDOF 4
ENDMDL
MODEL 8
REMARK VINA RESULT:    -7.596      4.223      5.689
REMARK INTER + INTRA:          -9.756
REMARK INTER:                  -9.239
REMARK INTRA:                  -0.517
REMARK UNBOUND:                -0.384
REMARK SMILES CCS(=O)(=O)N1CCN(S(=O)(=O)c2ccc(F)cc2)CC1
REMARK SMILES IDX 6 1 7 2 8 3 9 4 20 5 21 6 3 7 4 8 5 9 2 10 1 11 10 12 11 13
REMARK SMILES IDX 12 14 13 15 14 16 19 17 15 18 18 19 16 20 17 21
REMARK H PARENT
ROOT
ATOM      1  N   UNL     1       1.667  -8.172  46.428  1.00  0.00    -0.199 NA
ATOM      2  C   UNL     1       2.938  -8.236  47.198  1.00  0.00     0.119 C 
ATOM      3  C   UNL     1       3.551  -9.640  47.125  1.00  0.00     0.119 C 
ATOM      4  N   UNL     1       2.639 -10.682  47.707  1.00  0.00    -0.195 NA
ATOM      5  C   UNL     1       1.184 -10.376  47.503  1.00  0.00     0.119 C 
ATOM      6  C   UNL     1       0.936  -9.462  46.298  1.00  0.00     0.119 C 
ENDROOT
BRANCH   1   7
ATOM      7  S   UNL     1       0.787  -6.738  46.484  1.00  0.00     0.213 S 
ATOM      8  O   UNL     1       1.251  -5.903  45.398  1.00  0.00    -0.212 OA
ATOM      9  O   UNL     1       0.804  -6.274  47.855  1.00  0.00    -0.212 OA
BRANCH   7  10
ATOM     10  C   UNL     1      -0.878  -7.283  46.096  1.00  0.00     0.151 C 
ATOM     11  C   UNL     1      -1.347  -6.711  44.772  1.00  0.00     0.022 C 
ENDBRANCH   7  10
ENDBRANCH   1   7
BRANCH   4  12
ATOM     12  S   UNL     1       2.990 -11.156  49.309  1.00  0.00     0.243 S 
ATOM     13  O   UNL     1       2.282 -10.268  50.203  1.00  0.00    -0.207 OA
ATOM     14  O   UNL     1       4.427 -11.320  49.386  1.00  0.00    -0.207 OA
BRANCH  12  15
ATOM     15  C   UNL     1       2.223 -12.751  49.427  1.00  0.00     0.082 A 
ATOM     16  C   UNL     1       1.326 -12.994  50.476  1.00  0.00     0.025 A 
ATOM     17  C   UNL     1       2.519 -13.746  48.488  1.00  0.00     0.025 A 
ATOM     18  C   UNL     1       0.715 -14.245  50.577  1.00  0.00     0.040 A 
ATOM     19  C   UNL     1       1.903 -14.993  48.598  1.00  0.00     0.040 A 
ATOM     20  C   UNL     1       1.008 -15.230  49.638  1.00  0.00     0.123 A 
ATOM     21  F   UNL     1       0.418 -16.428  49.737  1.00  0.00    -0.207 F 
ENDBRANCH  12  15
ENDBRANCH   4  12
TORSDOF 4
ENDMDL
MODEL 9
REMARK VINA RESULT:    -7.581     14.044     16.108
REMARK INTER + INTRA:          -9.738
REMARK INTER:                  -9.652
REMARK INTRA:                  -0.086
REMARK UNBOUND:                -0.384
REMARK SMILES CCS(=O)(=O)N1CCN(S(=O)(=O)c2ccc(F)cc2)CC1
REMARK SMILES IDX 6 1 7 2 8 3 9 4 20 5 21 6 3 7 4 8 5 9 2 10 1 11 10 12 11 13
REMARK SMILES IDX 12 14 13 15 14 16 19 17 15 18 18 19 16 20 17 21
REMARK H PARENT
ROOT
ATOM      1  N   UNL     1      -1.176  -0.507  30.377  1.00  0.00    -0.199 NA
ATOM      2  C   UNL     1      -0.641  -1.702  29.673  1.00  0.00     0.119 C 
ATOM      3  C   UNL     1      -0.729  -2.947  30.563  1.00  0.00     0.119 C 
ATOM      4  N   UNL     1       0.071  -2.794  31.824  1.00  0.00    -0.195 NA
ATOM      5  C   UNL     1       0.109  -1.382  32.334  1.00  0.00     0.119 C 
ATOM      6  C   UNL     1      -1.091  -0.553  31.862  1.00  0.00     0.119 C 
ENDROOT
BRANCH   1   7
ATOM      7  S   UNL     1      -1.058   0.981  29.599  1.00  0.00     0.213 S 
ATOM      8  O   UNL     1       0.042   0.894  28.664  1.00  0.00    -0.212 OA
ATOM      9  O   UNL     1      -1.104   2.007  30.619  1.00  0.00    -0.212 OA
BRANCH   7  10
ATOM     10  C   UNL     1      -2.585   1.055  28.659  1.00  0.00     0.151 C 
ATOM     11  C   UNL     1      -3.599   1.960  29.332  1.00  0.00     0.022 C 
ENDBRANCH   7  10
ENDBRANCH   1   7
BRANCH   4  12
ATOM     12  S   UNL     1       1.613  -3.526  31.812  1.00  0.00     0.243 S 
ATOM     13  O   UNL     1       2.249  -3.207  30.554  1.00  0.00    -0.207 OA
ATOM     14  O   UNL     1       1.423  -4.897  32.238  1.00  0.00    -0.207 OA
BRANCH  12  15
ATOM     15  C   UNL     1       2.480  -2.645  33.084  1.00  0.00     0.082 A 
ATOM     16  C   UNL     1       3.548  -1.813  32.723  1.00  0.00     0.025 A 
ATOM     17  C   UNL     1       2.102  -2.789  34.424  1.00  0.00     0.025 A 
ATOM     18  C   UNL     1       4.236  -1.113  33.715  1.00  0.00     0.040 A 
ATOM     19  C   UNL     1       2.796  -2.085  35.409  1.00  0.00     0.040 A 
ATOM     20  C   UNL     1       3.853  -1.255  35.046  1.00  0.00     0.123 A 
ATOM     21  F   UNL     1       4.514  -0.580  35.995  1.00  0.00    -0.207 F 
ENDBRANCH  12  15
ENDBRANCH   4  12
TORSDOF 4
ENDMDL
MODEL 10
REMARK VINA RESULT:    -7.490      3.485      4.722
REMARK INTER + INTRA:          -9.625
REMARK INTER:                  -9.479
REMARK INTRA:                  -0.145
REMARK UNBOUND:                -0.384
REMARK SMILES CCS(=O)(=O)N1CCN(S(=O)(=O)c2ccc(F)cc2)CC1
REMARK SMILES IDX 6 1 7 2 8 3 9 4 20 5 21 6 3 7 4 8 5 9 2 10 1 11 10 12 11 13
REMARK SMILES IDX 12 14 13 15 14 16 19 17 15 18 18 19 16 20 17 21
REMARK H PARENT
ROOT
ATOM      1  N   UNL     1       2.645  -9.980  48.922  1.00  0.00    -0.199 NA
ATOM      2  C   UNL     1       2.644  -8.539  49.291  1.00  0.00     0.119 C 
ATOM      3  C   UNL     1       1.262  -8.107  49.796  1.00  0.00     0.119 C 
ATOM      4  N   UNL     1       0.200  -8.287  48.750  1.00  0.00    -0.195 NA
ATOM      5  C   UNL     1       0.448  -9.462  47.850  1.00  0.00     0.119 C 
ATOM      6  C   UNL     1       1.328 -10.532  48.506  1.00  0.00     0.119 C 
ENDROOT
BRANCH   1   7
ATOM      7  S   UNL     1       4.047 -10.612  48.237  1.00  0.00     0.213 S 
ATOM      8  O   UNL     1       3.695 -11.869  47.612  1.00  0.00    -0.212 OA
ATOM      9  O   UNL     1       5.091 -10.532  49.237  1.00  0.00    -0.212 OA
BRANCH   7  10
ATOM     10  C   UNL     1       4.419  -9.429  46.940  1.00  0.00     0.151 C 
ATOM     11  C   UNL     1       5.681  -9.817  46.192  1.00  0.00     0.022 C 
ENDBRANCH   7  10
ENDBRANCH   1   7
BRANCH   4  12
ATOM     12  S   UNL     1      -0.229  -6.879  47.885  1.00  0.00     0.243 S 
ATOM     13  O   UNL     1       0.781  -5.875  48.136  1.00  0.00    -0.207 OA
ATOM     14  O   UNL     1      -1.628  -6.631  48.165  1.00  0.00    -0.207 OA
BRANCH  12  15
ATOM     15  C   UNL     1      -0.063  -7.388  46.194  1.00  0.00     0.082 A 
ATOM     16  C   UNL     1       1.202  -7.333  45.592  1.00  0.00     0.025 A 
ATOM     17  C   UNL     1      -1.182  -7.827  45.478  1.00  0.00     0.025 A 
ATOM     18  C   UNL     1       1.345  -7.733  44.263  1.00  0.00     0.040 A 
ATOM     19  C   UNL     1      -1.029  -8.225  44.149  1.00  0.00     0.040 A 
ATOM     20  C   UNL     1       0.230  -8.176  43.556  1.00  0.00     0.123 A 
ATOM     21  F   UNL     1       0.372  -8.560  42.281  1.00  0.00    -0.207 F 
ENDBRANCH  12  15
ENDBRANCH   4  12
TORSDOF 4
ENDMDL
