MODEL 1
REMARK VINA RESULT:   -10.240      0.000      0.000
REMARK INTER + INTRA:         -11.942
REMARK INTER:                 -12.036
REMARK INTRA:                   0.093
REMARK UNBOUND:                 0.093
REMARK SMILES Cc1cc2c(cc1S(=O)(=O)Nc1ccc(F)cc1)n(C)c(=O)c(=O)n2C
REMARK SMILES IDX 8 1 9 2 10 3 7 4 2 5 3 6 4 7 6 8 5 9 25 10 19 11 23 12 21 13
REMARK SMILES IDX 24 14 22 15 1 16 26 17 20 18 11 19 12 21 13 22 18 23 14 24
REMARK SMILES IDX 17 25 15 26 16 27
REMARK H PARENT 11 20
ROOT
ATOM      1  S   UNL     1       2.759 -11.846  49.192  1.00  0.00     0.262 S 
ATOM      2  O   UNL     1       3.480 -11.609  50.421  1.00  0.00    -0.201 OA
ATOM      3  O   UNL     1       1.320 -12.016  49.211  1.00  0.00    -0.201 OA
ENDROOT
BRANCH   1   4
ATOM      4  C   UNL     1       3.116 -10.572  47.990  1.00  0.00     0.092 A 
ATOM      5  C   UNL     1       4.410 -10.232  47.581  1.00  0.00    -0.028 A 
ATOM      6  C   UNL     1       4.550  -9.196  46.637  1.00  0.00     0.033 A 
ATOM      7  C   UNL     1       3.444  -8.505  46.098  1.00  0.00     0.068 A 
ATOM      8  C   UNL     1       2.006  -9.883  47.468  1.00  0.00     0.051 A 
ATOM      9  C   UNL     1       2.154  -8.853  46.523  1.00  0.00     0.069 A 
ATOM     10  N   UNL     1       3.629  -7.471  45.141  1.00  0.00    -0.305 N 
ATOM     11  N   UNL     1       1.019  -8.174  46.005  1.00  0.00    -0.305 N 
ATOM     12  C   UNL     1       2.551  -6.775  44.594  1.00  0.00     0.316 A 
ATOM     13  C   UNL     1       1.141  -7.154  45.062  1.00  0.00     0.316 A 
ATOM     14  O   UNL     1       2.672  -5.881  43.759  1.00  0.00    -0.263 OA
ATOM     15  O   UNL     1       0.183  -6.548  44.587  1.00  0.00    -0.263 OA
ATOM     16  C   UNL     1       5.659 -10.892  48.097  1.00  0.00     0.046 C 
ATOM     17  C   UNL     1       4.965  -7.101  44.698  1.00  0.00     0.154 C 
ATOM     18  C   UNL     1      -0.321  -8.521  46.455  1.00  0.00     0.154 C 
ENDBRANCH   1   4
BRANCH   1  19
ATOM     19  N   UNL     1       3.370 -13.234  48.438  1.00  0.00    -0.280 N 
ATOM     20  H   UNL     1       3.962 -12.976  47.648  1.00  0.00     0.180 HD
BRANCH  19  21
ATOM     21  C   UNL     1       2.491 -14.336  48.258  1.00  0.00     0.049 A 
ATOM     22  C   UNL     1       1.821 -14.888  49.351  1.00  0.00     0.030 A 
ATOM     23  C   UNL     1       2.336 -14.879  46.981  1.00  0.00     0.030 A 
ATOM     24  C   UNL     1       0.986 -15.990  49.163  1.00  0.00     0.041 A 
ATOM     25  C   UNL     1       1.498 -15.980  46.797  1.00  0.00     0.041 A 
ATOM     26  C   UNL     1       0.832 -16.525  47.889  1.00  0.00     0.123 A 
ATOM     27  F   UNL     1       0.031 -17.583  47.711  1.00  0.00    -0.207 F 
ENDBRANCH  19  21
ENDBRANCH   1  19
TORSDOF 3
ENDMDL
MODEL 2
REMARK VINA RESULT:   -10.213      4.130      5.672
REMARK INTER + INTRA:         -11.911
REMARK INTER:                 -12.859
REMARK INTRA:                   0.948
REMARK UNBOUND:                 0.093
REMARK SMILES Cc1cc2c(cc1S(=O)(=O)Nc1ccc(F)cc1)n(C)c(=O)c(=O)n2C
REMARK SMILES IDX 8 1 9 2 10 3 7 4 2 5 3 6 4 7 6 8 5 9 25 10 19 11 23 12 21 13
REMARK SMILES IDX 24 14 22 15 1 16 26 17 20 18 11 19 12 21 13 22 18 23 14 24
REMARK SMILES IDX 17 25 15 26 16 27
REMARK H PARENT 11 20
ROOT
ATOM      1  S   UNL     1       1.112 -16.649  48.392  1.00  0.00     0.262 S 
ATOM      2  O   UNL     1       1.544 -17.610  49.379  1.00  0.00    -0.201 OA
ATOM      3  O   UNL     1      -0.293 -16.523  48.061  1.00  0.00    -0.201 OA
ENDROOT
BRANCH   1   4
ATOM      4  C   UNL     1       1.696 -15.010  48.802  1.00  0.00     0.092 A 
ATOM      5  C   UNL     1       1.048 -14.157  49.702  1.00  0.00    -0.028 A 
ATOM      6  C   UNL     1       1.609 -12.884  49.921  1.00  0.00     0.033 A 
ATOM      7  C   UNL     1       2.786 -12.451  49.275  1.00  0.00     0.068 A 
ATOM      8  C   UNL     1       2.865 -14.585  48.143  1.00  0.00     0.051 A 
ATOM      9  C   UNL     1       3.421 -13.315  48.371  1.00  0.00     0.069 A 
ATOM     10  N   UNL     1       3.324 -11.160  49.531  1.00  0.00    -0.305 N 
ATOM     11  N   UNL     1       4.605 -12.908  47.699  1.00  0.00    -0.305 N 
ATOM     12  C   UNL     1       4.486 -10.712  48.906  1.00  0.00     0.316 A 
ATOM     13  C   UNL     1       5.177 -11.655  47.915  1.00  0.00     0.316 A 
ATOM     14  O   UNL     1       4.984  -9.607  49.108  1.00  0.00    -0.263 OA
ATOM     15  O   UNL     1       6.203 -11.271  47.356  1.00  0.00    -0.263 OA
ATOM     16  C   UNL     1      -0.216 -14.509  50.437  1.00  0.00     0.046 C 
ATOM     17  C   UNL     1       2.669 -10.256  50.465  1.00  0.00     0.154 C 
ATOM     18  C   UNL     1       5.258 -13.795  46.747  1.00  0.00     0.154 C 
ENDBRANCH   1   4
BRANCH   1  19
ATOM     19  N   UNL     1       1.899 -16.955  46.924  1.00  0.00    -0.280 N 
ATOM     20  H   UNL     1       2.829 -16.533  46.926  1.00  0.00     0.180 HD
BRANCH  19  21
ATOM     21  C   UNL     1       1.141 -16.849  45.727  1.00  0.00     0.049 A 
ATOM     22  C   UNL     1      -0.210 -16.502  45.778  1.00  0.00     0.030 A 
ATOM     23  C   UNL     1       1.756 -17.130  44.506  1.00  0.00     0.030 A 
ATOM     24  C   UNL     1      -0.949 -16.433  44.596  1.00  0.00     0.041 A 
ATOM     25  C   UNL     1       1.015 -17.058  43.326  1.00  0.00     0.041 A 
ATOM     26  C   UNL     1      -0.330 -16.711  43.382  1.00  0.00     0.123 A 
ATOM     27  F   UNL     1      -1.042 -16.644  42.250  1.00  0.00    -0.207 F 
ENDBRANCH  19  21
ENDBRANCH   1  19
TORSDOF 3
ENDMDL
MODEL 3
REMARK VINA RESULT:   -10.141      3.645      6.937
REMARK INTER + INTRA:         -11.827
REMARK INTER:                 -11.793
REMARK INTRA:                  -0.033
REMARK UNBOUND:                 0.093
REMARK SMILES Cc1cc2c(cc1S(=O)(=O)Nc1ccc(F)cc1)n(C)c(=O)c(=O)n2C
REMARK SMILES IDX 8 1 9 2 10 3 7 4 2 5 3 6 4 7 6 8 5 9 25 10 19 11 23 12 21 13
REMARK SMILES IDX 24 14 22 15 1 16 26 17 20 18 11 19 12 21 13 22 18 23 14 24
REMARK SMILES IDX 17 25 15 26 16 27
REMARK H PARENT 11 20
ROOT
ATOM      1  S   UNL     1       3.883  -6.899  45.059  1.00  0.00     0.262 S 
ATOM      2  O   UNL     1       4.937  -5.914  45.138  1.00  0.00    -0.201 OA
ATOM      3  O   UNL     1       3.434  -7.386  43.771  1.00  0.00    -0.201 OA
ENDROOT
BRANCH   1   4
ATOM      4  C   UNL     1       4.279  -8.334  46.048  1.00  0.00     0.092 A 
ATOM      5  C   UNL     1       5.312  -9.226  45.743  1.00  0.00    -0.028 A 
ATOM      6  C   UNL     1       5.505 -10.327  46.601  1.00  0.00     0.033 A 
ATOM      7  C   UNL     1       4.703 -10.552  47.740  1.00  0.00     0.068 A 
ATOM      8  C   UNL     1       3.465  -8.554  47.175  1.00  0.00     0.051 A 
ATOM      9  C   UNL     1       3.667  -9.652  48.028  1.00  0.00     0.069 A 
ATOM     10  N   UNL     1       4.937 -11.671  48.584  1.00  0.00    -0.305 N 
ATOM     11  N   UNL     1       2.838  -9.853  49.165  1.00  0.00    -0.305 N 
ATOM     12  C   UNL     1       4.159 -11.913  49.715  1.00  0.00     0.316 A 
ATOM     13  C   UNL     1       3.024 -10.931  50.028  1.00  0.00     0.316 A 
ATOM     14  O   UNL     1       4.337 -12.865  50.472  1.00  0.00    -0.263 OA
ATOM     15  O   UNL     1       2.331 -11.133  51.023  1.00  0.00    -0.263 OA
ATOM     16  C   UNL     1       6.219  -9.091  44.551  1.00  0.00     0.046 C 
ATOM     17  C   UNL     1       6.008 -12.612  48.288  1.00  0.00     0.154 C 
ATOM     18  C   UNL     1       1.751  -8.931  49.459  1.00  0.00     0.154 C 
ENDBRANCH   1   4
BRANCH   1  19
ATOM     19  N   UNL     1       2.497  -6.303  45.828  1.00  0.00    -0.280 N 
ATOM     20  H   UNL     1       2.640  -6.266  46.838  1.00  0.00     0.180 HD
BRANCH  19  21
ATOM     21  C   UNL     1       1.232  -6.759  45.368  1.00  0.00     0.049 A 
ATOM     22  C   UNL     1       0.695  -6.264  44.179  1.00  0.00     0.030 A 
ATOM     23  C   UNL     1       0.521  -7.681  46.139  1.00  0.00     0.030 A 
ATOM     24  C   UNL     1      -0.563  -6.698  43.757  1.00  0.00     0.041 A 
ATOM     25  C   UNL     1      -0.735  -8.114  45.713  1.00  0.00     0.041 A 
ATOM     26  C   UNL     1      -1.265  -7.619  44.527  1.00  0.00     0.123 A 
ATOM     27  F   UNL     1      -2.472  -8.033  44.120  1.00  0.00    -0.207 F 
ENDBRANCH  19  21
ENDBRANCH   1  19
TORSDOF 3
ENDMDL
MODEL 4
REMARK VINA RESULT:    -9.790      4.505      7.841
REMARK INTER + INTRA:         -11.413
REMARK INTER:                 -11.043
REMARK INTRA:                  -0.370
REMARK UNBOUND:                 0.093
REMARK SMILES Cc1cc2c(cc1S(=O)(=O)Nc1ccc(F)cc1)n(C)c(=O)c(=O)n2C
REMARK SMILES IDX 8 1 9 2 10 3 7 4 2 5 3 6 4 7 6 8 5 9 25 10 19 11 23 12 21 13
REMARK SMILES IDX 24 14 22 15 1 16 26 17 20 18 11 19 12 21 13 22 18 23 14 24
REMARK SMILES IDX 17 25 15 26 16 27
REMARK H PARENT 11 20
ROOT
ATOM      1  S   UNL     1      -0.854  -8.031  44.237  1.00  0.00     0.262 S 
ATOM      2  O   UNL     1      -0.266  -9.293  43.854  1.00  0.00    -0.201 OA
ATOM      3  O   UNL     1      -2.249  -7.760  43.958  1.00  0.00    -0.201 OA
ENDROOT
BRANCH   1   4
ATOM      4  C   UNL     1      -0.602  -7.715  45.979  1.00  0.00     0.092 A 
ATOM      5  C   UNL     1      -1.296  -6.736  46.698  1.00  0.00    -0.028 A 
ATOM      6  C   UNL     1      -0.987  -6.582  48.064  1.00  0.00     0.033 A 
ATOM      7  C   UNL     1      -0.018  -7.372  48.717  1.00  0.00     0.068 A 
ATOM      8  C   UNL     1       0.375  -8.502  46.617  1.00  0.00     0.051 A 
ATOM      9  C   UNL     1       0.674  -8.344  47.981  1.00  0.00     0.069 A 
ATOM     10  N   UNL     1       0.258  -7.190  50.100  1.00  0.00    -0.305 N 
ATOM     11  N   UNL     1       1.660  -9.154  48.607  1.00  0.00    -0.305 N 
ATOM     12  C   UNL     1       1.209  -7.960  50.767  1.00  0.00     0.316 A 
ATOM     13  C   UNL     1       1.968  -9.020  49.960  1.00  0.00     0.316 A 
ATOM     14  O   UNL     1       1.468  -7.836  51.962  1.00  0.00    -0.263 OA
ATOM     15  O   UNL     1       2.810  -9.705  50.537  1.00  0.00    -0.263 OA
ATOM     16  C   UNL     1      -2.338  -5.831  46.102  1.00  0.00     0.046 C 
ATOM     17  C   UNL     1      -0.454  -6.180  50.870  1.00  0.00     0.154 C 
ATOM     18  C   UNL     1       2.392 -10.153  47.843  1.00  0.00     0.154 C 
ENDBRANCH   1   4
BRANCH   1  19
ATOM     19  N   UNL     1       0.008  -6.765  43.514  1.00  0.00    -0.280 N 
ATOM     20  H   UNL     1      -0.150  -6.760  42.505  1.00  0.00     0.180 HD
BRANCH  19  21
ATOM     21  C   UNL     1       1.332  -6.518  43.964  1.00  0.00     0.049 A 
ATOM     22  C   UNL     1       2.335  -7.467  43.757  1.00  0.00     0.030 A 
ATOM     23  C   UNL     1       1.608  -5.332  44.647  1.00  0.00     0.030 A 
ATOM     24  C   UNL     1       3.624  -7.224  44.233  1.00  0.00     0.041 A 
ATOM     25  C   UNL     1       2.899  -5.091  45.121  1.00  0.00     0.041 A 
ATOM     26  C   UNL     1       3.894  -6.039  44.910  1.00  0.00     0.123 A 
ATOM     27  F   UNL     1       5.131  -5.809  45.367  1.00  0.00    -0.207 F 
ENDBRANCH  19  21
ENDBRANCH   1  19
TORSDOF 3
ENDMDL
MODEL 5
REMARK VINA RESULT:    -9.638      3.734      6.868
REMARK INTER + INTRA:         -11.235
REMARK INTER:                 -10.942
REMARK INTRA:                  -0.294
REMARK UNBOUND:                 0.093
REMARK SMILES Cc1cc2c(cc1S(=O)(=O)Nc1ccc(F)cc1)n(C)c(=O)c(=O)n2C
REMARK SMILES IDX 8 1 9 2 10 3 7 4 2 5 3 6 4 7 6 8 5 9 25 10 19 11 23 12 21 13
REMARK SMILES IDX 24 14 22 15 1 16 26 17 20 18 11 19 12 21 13 22 18 23 14 24
REMARK SMILES IDX 17 25 15 26 16 27
REMARK H PARENT 11 20
ROOT
ATOM      1  S   UNL     1       5.245 -11.213  48.995  1.00  0.00     0.262 S 
ATOM      2  O   UNL     1       4.979 -10.870  50.372  1.00  0.00    -0.201 OA
ATOM      3  O   UNL     1       6.600 -11.478  48.556  1.00  0.00    -0.201 OA
ENDROOT
BRANCH   1   4
ATOM      4  C   UNL     1       4.251 -12.608  48.484  1.00  0.00     0.092 A 
ATOM      5  C   UNL     1       4.516 -13.373  47.343  1.00  0.00    -0.028 A 
ATOM      6  C   UNL     1       3.642 -14.437  47.048  1.00  0.00     0.033 A 
ATOM      7  C   UNL     1       2.528 -14.752  47.855  1.00  0.00     0.068 A 
ATOM      8  C   UNL     1       3.138 -12.905  49.291  1.00  0.00     0.051 A 
ATOM      9  C   UNL     1       2.273 -13.972  48.992  1.00  0.00     0.069 A 
ATOM     10  N   UNL     1       1.675 -15.840  47.526  1.00  0.00    -0.305 N 
ATOM     11  N   UNL     1       1.157 -14.258  49.824  1.00  0.00    -0.305 N 
ATOM     12  C   UNL     1       0.571 -16.170  48.310  1.00  0.00     0.316 A 
ATOM     13  C   UNL     1       0.290 -15.315  49.551  1.00  0.00     0.316 A 
ATOM     14  O   UNL     1      -0.184 -17.108  48.061  1.00  0.00    -0.263 OA
ATOM     15  O   UNL     1      -0.681 -15.596  50.250  1.00  0.00    -0.263 OA
ATOM     16  C   UNL     1       5.665 -13.121  46.406  1.00  0.00     0.046 C 
ATOM     17  C   UNL     1       1.931 -16.652  46.345  1.00  0.00     0.154 C 
ATOM     18  C   UNL     1       0.879 -13.442  50.997  1.00  0.00     0.154 C 
ENDBRANCH   1   4
BRANCH   1  19
ATOM     19  N   UNL     1       4.675  -9.977  47.987  1.00  0.00    -0.280 N 
ATOM     20  H   UNL     1       5.300  -9.171  48.025  1.00  0.00     0.180 HD
BRANCH  19  21
ATOM     21  C   UNL     1       3.278  -9.714  47.980  1.00  0.00     0.049 A 
ATOM     22  C   UNL     1       2.685  -9.036  49.045  1.00  0.00     0.030 A 
ATOM     23  C   UNL     1       2.505 -10.175  46.912  1.00  0.00     0.030 A 
ATOM     24  C   UNL     1       1.307  -8.813  49.039  1.00  0.00     0.041 A 
ATOM     25  C   UNL     1       1.128  -9.949  46.909  1.00  0.00     0.041 A 
ATOM     26  C   UNL     1       0.542  -9.271  47.972  1.00  0.00     0.123 A 
ATOM     27  F   UNL     1      -0.780  -9.057  47.969  1.00  0.00    -0.207 F 
ENDBRANCH  19  21
ENDBRANCH   1  19
TORSDOF 3
ENDMDL
MODEL 6
REMARK VINA RESULT:    -9.541      4.550      7.989
REMARK INTER + INTRA:         -11.121
REMARK INTER:                 -10.737
REMARK INTRA:                  -0.384
REMARK UNBOUND:                 0.093
REMARK SMILES Cc1cc2c(cc1S(=O)(=O)Nc1ccc(F)cc1)n(C)c(=O)c(=O)n2C
REMARK SMILES IDX 8 1 9 2 10 3 7 4 2 5 3 6 4 7 6 8 5 9 25 10 19 11 23 12 21 13
REMARK SMILES IDX 24 14 22 15 1 16 26 17 20 18 11 19 12 21 13 22 18 23 14 24
REMARK SMILES IDX 17 25 15 26 16 27
REMARK H PARENT 11 20
ROOT
ATOM      1  S   UNL     1       0.402  -7.773  44.562  1.00  0.00     0.262 S 
ATOM      2  O   UNL     1       1.380  -7.598  43.515  1.00  0.00    -0.201 OA
ATOM      3  O   UNL     1      -0.825  -8.499  44.302  1.00  0.00    -0.201 OA
ENDROOT
BRANCH   1   4
ATOM      4  C   UNL     1       1.145  -8.513  46.010  1.00  0.00     0.092 A 
ATOM      5  C   UNL     1       0.442  -8.792  47.186  1.00  0.00    -0.028 A 
ATOM      6  C   UNL     1       1.155  -9.362  48.259  1.00  0.00     0.033 A 
ATOM      7  C   UNL     1       2.533  -9.656  48.184  1.00  0.00     0.068 A 
ATOM      8  C   UNL     1       2.521  -8.792  45.926  1.00  0.00     0.051 A 
ATOM      9  C   UNL     1       3.225  -9.365  47.000  1.00  0.00     0.069 A 
ATOM     10  N   UNL     1       3.214 -10.239  49.287  1.00  0.00    -0.305 N 
ATOM     11  N   UNL     1       4.614  -9.644  46.892  1.00  0.00    -0.305 N 
ATOM     12  C   UNL     1       4.574 -10.541  49.234  1.00  0.00     0.316 A 
ATOM     13  C   UNL     1       5.331 -10.218  47.941  1.00  0.00     0.316 A 
ATOM     14  O   UNL     1       5.193 -11.052  50.165  1.00  0.00    -0.263 OA
ATOM     15  O   UNL     1       6.531 -10.479  47.882  1.00  0.00    -0.263 OA
ATOM     16  C   UNL     1      -1.022  -8.509  47.382  1.00  0.00     0.046 C 
ATOM     17  C   UNL     1       2.503 -10.542  50.521  1.00  0.00     0.154 C 
ATOM     18  C   UNL     1       5.340  -9.328  45.671  1.00  0.00     0.154 C 
ENDBRANCH   1   4
BRANCH   1  19
ATOM     19  N   UNL     1      -0.082  -6.257  45.141  1.00  0.00    -0.280 N 
ATOM     20  H   UNL     1      -0.758  -5.833  44.503  1.00  0.00     0.180 HD
BRANCH  19  21
ATOM     21  C   UNL     1       0.913  -5.405  45.691  1.00  0.00     0.049 A 
ATOM     22  C   UNL     1       0.772  -4.901  46.984  1.00  0.00     0.030 A 
ATOM     23  C   UNL     1       2.014  -5.052  44.907  1.00  0.00     0.030 A 
ATOM     24  C   UNL     1       1.743  -4.039  47.499  1.00  0.00     0.041 A 
ATOM     25  C   UNL     1       2.983  -4.193  45.425  1.00  0.00     0.041 A 
ATOM     26  C   UNL     1       2.839  -3.694  46.715  1.00  0.00     0.123 A 
ATOM     27  F   UNL     1       3.768  -2.867  47.211  1.00  0.00    -0.207 F 
ENDBRANCH  19  21
ENDBRANCH   1  19
TORSDOF 3
ENDMDL
MODEL 7
REMARK VINA RESULT:    -9.427      4.299      7.737
REMARK INTER + INTRA:         -10.988
REMARK INTER:                 -11.502
REMARK INTRA:                   0.514
REMARK UNBOUND:                 0.093
REMARK SMILES Cc1cc2c(cc1S(=O)(=O)Nc1ccc(F)cc1)n(C)c(=O)c(=O)n2C
REMARK SMILES IDX 8 1 9 2 10 3 7 4 2 5 3 6 4 7 6 8 5 9 25 10 19 11 23 12 21 13
REMARK SMILES IDX 24 14 22 15 1 16 26 17 20 18 11 19 12 21 13 22 18 23 14 24
REMARK SMILES IDX 17 25 15 26 16 27
REMARK H PARENT 11 20
ROOT
ATOM      1  S   UNL     1       4.566  -7.364  44.536  1.00  0.00     0.262 S 
ATOM      2  O   UNL     1       5.271  -6.175  44.957  1.00  0.00    -0.201 OA
ATOM      3  O   UNL     1       4.803  -7.927  43.223  1.00  0.00    -0.201 OA
ENDROOT
BRANCH   1   4
ATOM      4  C   UNL     1       4.793  -8.688  45.717  1.00  0.00     0.092 A 
ATOM      5  C   UNL     1       5.805  -9.649  45.619  1.00  0.00    -0.028 A 
ATOM      6  C   UNL     1       5.859 -10.648  46.611  1.00  0.00     0.033 A 
ATOM      7  C   UNL     1       4.942 -10.706  47.682  1.00  0.00     0.068 A 
ATOM      8  C   UNL     1       3.866  -8.742  46.773  1.00  0.00     0.051 A 
ATOM      9  C   UNL     1       3.930  -9.739  47.761  1.00  0.00     0.069 A 
ATOM     10  N   UNL     1       5.037 -11.727  48.666  1.00  0.00    -0.305 N 
ATOM     11  N   UNL     1       2.986  -9.772  48.824  1.00  0.00    -0.305 N 
ATOM     12  C   UNL     1       4.143 -11.804  49.733  1.00  0.00     0.316 A 
ATOM     13  C   UNL     1       3.035 -10.748  49.818  1.00  0.00     0.316 A 
ATOM     14  O   UNL     1       4.200 -12.667  50.607  1.00  0.00    -0.263 OA
ATOM     15  O   UNL     1       2.240 -10.805  50.754  1.00  0.00    -0.263 OA
ATOM     16  C   UNL     1       6.827  -9.690  44.517  1.00  0.00     0.046 C 
ATOM     17  C   UNL     1       6.083 -12.737  48.588  1.00  0.00     0.154 C 
ATOM     18  C   UNL     1       1.924  -8.780  48.901  1.00  0.00     0.154 C 
ENDBRANCH   1   4
BRANCH   1  19
ATOM     19  N   UNL     1       2.897  -7.089  44.620  1.00  0.00    -0.280 N 
ATOM     20  H   UNL     1       2.479  -7.169  43.692  1.00  0.00     0.180 HD
BRANCH  19  21
ATOM     21  C   UNL     1       2.437  -6.033  45.450  1.00  0.00     0.049 A 
ATOM     22  C   UNL     1       3.018  -4.767  45.366  1.00  0.00     0.030 A 
ATOM     23  C   UNL     1       1.422  -6.288  46.375  1.00  0.00     0.030 A 
ATOM     24  C   UNL     1       2.577  -3.747  46.211  1.00  0.00     0.041 A 
ATOM     25  C   UNL     1       0.982  -5.266  47.217  1.00  0.00     0.041 A 
ATOM     26  C   UNL     1       1.564  -4.006  47.127  1.00  0.00     0.123 A 
ATOM     27  F   UNL     1       1.142  -3.026  47.938  1.00  0.00    -0.207 F 
ENDBRANCH  19  21
ENDBRANCH   1  19
TORSDOF 3
ENDMDL
MODEL 8
REMARK VINA RESULT:    -9.254      3.219      7.351
REMARK INTER + INTRA:         -10.784
REMARK INTER:                 -10.362
REMARK INTRA:                  -0.423
REMARK UNBOUND:                 0.093
REMARK SMILES Cc1cc2c(cc1S(=O)(=O)Nc1ccc(F)cc1)n(C)c(=O)c(=O)n2C
REMARK SMILES IDX 8 1 9 2 10 3 7 4 2 5 3 6 4 7 6 8 5 9 25 10 19 11 23 12 21 13
REMARK SMILES IDX 24 14 22 15 1 16 26 17 20 18 11 19 12 21 13 22 18 23 14 24
REMARK SMILES IDX 17 25 15 26 16 27
REMARK H PARENT 11 20
ROOT
ATOM      1  S   UNL     1       4.270  -9.788  47.922  1.00  0.00     0.262 S 
ATOM      2  O   UNL     1       5.288  -9.397  48.870  1.00  0.00    -0.201 OA
ATOM      3  O   UNL     1       4.640 -10.216  46.588  1.00  0.00    -0.201 OA
ENDROOT
BRANCH   1   4
ATOM      4  C   UNL     1       3.224 -11.066  48.605  1.00  0.00     0.092 A 
ATOM      5  C   UNL     1       2.448 -10.899  49.758  1.00  0.00    -0.028 A 
ATOM      6  C   UNL     1       1.680 -11.996  50.196  1.00  0.00     0.033 A 
ATOM      7  C   UNL     1       1.667 -13.234  49.520  1.00  0.00     0.068 A 
ATOM      8  C   UNL     1       3.228 -12.299  47.928  1.00  0.00     0.051 A 
ATOM      9  C   UNL     1       2.455 -13.387  48.370  1.00  0.00     0.069 A 
ATOM     10  N   UNL     1       0.871 -14.313  49.992  1.00  0.00    -0.305 N 
ATOM     11  N   UNL     1       2.469 -14.622  47.668  1.00  0.00    -0.305 N 
ATOM     12  C   UNL     1       0.841 -15.544  49.339  1.00  0.00     0.316 A 
ATOM     13  C   UNL     1       1.706 -15.712  48.084  1.00  0.00     0.316 A 
ATOM     14  O   UNL     1       0.160 -16.496  49.713  1.00  0.00    -0.263 OA
ATOM     15  O   UNL     1       1.689 -16.793  47.500  1.00  0.00    -0.263 OA
ATOM     16  C   UNL     1       2.394  -9.631  50.563  1.00  0.00     0.046 C 
ATOM     17  C   UNL     1       0.053 -14.163  51.187  1.00  0.00     0.154 C 
ATOM     18  C   UNL     1       3.298 -14.790  46.483  1.00  0.00     0.154 C 
ENDBRANCH   1   4
BRANCH   1  19
ATOM     19  N   UNL     1       3.182  -8.509  47.704  1.00  0.00    -0.280 N 
ATOM     20  H   UNL     1       2.689  -8.311  48.576  1.00  0.00     0.180 HD
BRANCH  19  21
ATOM     21  C   UNL     1       2.417  -8.483  46.507  1.00  0.00     0.049 A 
ATOM     22  C   UNL     1       2.787  -7.643  45.454  1.00  0.00     0.030 A 
ATOM     23  C   UNL     1       1.274  -9.279  46.412  1.00  0.00     0.030 A 
ATOM     24  C   UNL     1       2.008  -7.604  44.297  1.00  0.00     0.041 A 
ATOM     25  C   UNL     1       0.499  -9.239  45.252  1.00  0.00     0.041 A 
ATOM     26  C   UNL     1       0.872  -8.402  44.207  1.00  0.00     0.123 A 
ATOM     27  F   UNL     1       0.126  -8.363  43.095  1.00  0.00    -0.207 F 
ENDBRANCH  19  21
ENDBRANCH   1  19
TORSDOF 3
ENDMDL
MODEL 9
REMARK VINA RESULT:    -9.232      4.053      6.550
REMARK INTER + INTRA:         -10.758
REMARK INTER:                 -10.392
REMARK INTRA:                  -0.367
REMARK UNBOUND:                 0.093
REMARK SMILES Cc1cc2c(cc1S(=O)(=O)Nc1ccc(F)cc1)n(C)c(=O)c(=O)n2C
REMARK SMILES IDX 8 1 9 2 10 3 7 4 2 5 3 6 4 7 6 8 5 9 25 10 19 11 23 12 21 13
REMARK SMILES IDX 24 14 22 15 1 16 26 17 20 18 11 19 12 21 13 22 18 23 14 24
REMARK SMILES IDX 17 25 15 26 16 27
REMARK H PARENT 11 20
ROOT
ATOM      1  S   UNL     1       1.033  -8.187  48.820  1.00  0.00     0.262 S 
ATOM      2  O   UNL     1      -0.211  -8.876  48.565  1.00  0.00    -0.201 OA
ATOM      3  O   UNL     1       1.361  -7.744  50.160  1.00  0.00    -0.201 OA
ENDROOT
BRANCH   1   4
ATOM      4  C   UNL     1       2.423  -9.149  48.237  1.00  0.00     0.092 A 
ATOM      5  C   UNL     1       2.812 -10.369  48.800  1.00  0.00    -0.028 A 
ATOM      6  C   UNL     1       3.938 -11.015  48.252  1.00  0.00     0.033 A 
ATOM      7  C   UNL     1       4.670 -10.480  47.171  1.00  0.00     0.068 A 
ATOM      8  C   UNL     1       3.152  -8.599  47.167  1.00  0.00     0.051 A 
ATOM      9  C   UNL     1       4.271  -9.253  46.623  1.00  0.00     0.069 A 
ATOM     10  N   UNL     1       5.796 -11.169  46.643  1.00  0.00    -0.305 N 
ATOM     11  N   UNL     1       4.989  -8.683  45.538  1.00  0.00    -0.305 N 
ATOM     12  C   UNL     1       6.533 -10.660  45.575  1.00  0.00     0.316 A 
ATOM     13  C   UNL     1       6.098  -9.316  44.979  1.00  0.00     0.316 A 
ATOM     14  O   UNL     1       7.506 -11.231  45.088  1.00  0.00    -0.263 OA
ATOM     15  O   UNL     1       6.741  -8.857  44.037  1.00  0.00    -0.263 OA
ATOM     16  C   UNL     1       2.114 -11.026  49.958  1.00  0.00     0.046 C 
ATOM     17  C   UNL     1       6.219 -12.441  47.209  1.00  0.00     0.154 C 
ATOM     18  C   UNL     1       4.589  -7.401  44.976  1.00  0.00     0.154 C 
ENDBRANCH   1   4
BRANCH   1  19
ATOM     19  N   UNL     1       1.120  -6.803  47.849  1.00  0.00    -0.280 N 
ATOM     20  H   UNL     1       1.333  -5.983  48.419  1.00  0.00     0.180 HD
BRANCH  19  21
ATOM     21  C   UNL     1       0.149  -6.646  46.824  1.00  0.00     0.049 A 
ATOM     22  C   UNL     1      -1.169  -6.322  47.148  1.00  0.00     0.030 A 
ATOM     23  C   UNL     1       0.523  -6.855  45.495  1.00  0.00     0.030 A 
ATOM     24  C   UNL     1      -2.120  -6.202  46.133  1.00  0.00     0.041 A 
ATOM     25  C   UNL     1      -0.429  -6.734  44.483  1.00  0.00     0.041 A 
ATOM     26  C   UNL     1      -1.741  -6.409  44.811  1.00  0.00     0.123 A 
ATOM     27  F   UNL     1      -2.655  -6.294  43.838  1.00  0.00    -0.207 F 
ENDBRANCH  19  21
ENDBRANCH   1  19
TORSDOF 3
ENDMDL
MODEL 10
REMARK VINA RESULT:    -9.191     14.411     16.854
REMARK INTER + INTRA:         -10.709
REMARK INTER:                 -10.378
REMARK INTRA:                  -0.331
REMARK UNBOUND:                 0.093
REMARK SMILES Cc1cc2c(cc1S(=O)(=O)Nc1ccc(F)cc1)n(C)c(=O)c(=O)n2C
REMARK SMILES IDX 8 1 9 2 10 3 7 4 2 5 3 6 4 7 6 8 5 9 25 10 19 11 23 12 21 13
REMARK SMILES IDX 24 14 22 15 1 16 26 17 20 18 11 19 12 21 13 22 18 23 14 24
REMARK SMILES IDX 17 25 15 26 16 27
REMARK H PARENT 11 20
ROOT
ATOM      1  S   UNL     1     -12.659 -11.939  38.800  1.00  0.00     0.262 S 
ATOM      2  O   UNL     1     -13.525 -12.746  39.628  1.00  0.00    -0.201 OA
ATOM      3  O   UNL     1     -12.381 -10.563  39.159  1.00  0.00    -0.201 OA
ENDROOT
BRANCH   1   4
ATOM      4  C   UNL     1     -11.081 -12.742  38.558  1.00  0.00     0.092 A 
ATOM      5  C   UNL     1     -10.932 -13.988  37.939  1.00  0.00    -0.028 A 
ATOM      6  C   UNL     1      -9.629 -14.514  37.827  1.00  0.00     0.033 A 
ATOM      7  C   UNL     1      -8.491 -13.834  38.310  1.00  0.00     0.068 A 
ATOM      8  C   UNL     1      -9.955 -12.059  39.053  1.00  0.00     0.051 A 
ATOM      9  C   UNL     1      -8.659 -12.589  38.933  1.00  0.00     0.069 A 
ATOM     10  N   UNL     1      -7.194 -14.396  38.170  1.00  0.00    -0.305 N 
ATOM     11  N   UNL     1      -7.534 -11.880  39.435  1.00  0.00    -0.305 N 
ATOM     12  C   UNL     1      -6.055 -13.742  38.637  1.00  0.00     0.316 A 
ATOM     13  C   UNL     1      -6.239 -12.383  39.322  1.00  0.00     0.316 A 
ATOM     14  O   UNL     1      -4.917 -14.194  38.526  1.00  0.00    -0.263 OA
ATOM     15  O   UNL     1      -5.243 -11.796  39.739  1.00  0.00    -0.263 OA
ATOM     16  C   UNL     1     -12.073 -14.805  37.399  1.00  0.00     0.046 C 
ATOM     17  C   UNL     1      -7.012 -15.690  37.527  1.00  0.00     0.154 C 
ATOM     18  C   UNL     1      -7.705 -10.595  40.098  1.00  0.00     0.154 C 
ENDBRANCH   1   4
BRANCH   1  19
ATOM     19  N   UNL     1     -13.280 -11.881  37.225  1.00  0.00    -0.280 N 
ATOM     20  H   UNL     1     -13.513 -12.821  36.902  1.00  0.00     0.180 HD
BRANCH  19  21
ATOM     21  C   UNL     1     -12.651 -11.012  36.293  1.00  0.00     0.049 A 
ATOM     22  C   UNL     1     -13.191  -9.752  36.032  1.00  0.00     0.030 A 
ATOM     23  C   UNL     1     -11.510 -11.450  35.618  1.00  0.00     0.030 A 
ATOM     24  C   UNL     1     -12.580  -8.922  35.090  1.00  0.00     0.041 A 
ATOM     25  C   UNL     1     -10.901 -10.617  34.679  1.00  0.00     0.041 A 
ATOM     26  C   UNL     1     -11.442  -9.362  34.423  1.00  0.00     0.123 A 
ATOM     27  F   UNL     1     -10.858  -8.564  33.520  1.00  0.00    -0.207 F 
ENDBRANCH  19  21
ENDBRANCH   1  19
TORSDOF 3
ENDMDL
