MODEL 1
REMARK VINA RESULT:    -9.544      0.000      0.000
REMARK INTER + INTRA:         -12.896
REMARK INTER:                 -12.334
REMARK INTRA:                  -0.562
REMARK UNBOUND:                -0.562
REMARK SMILES COc1ccc(S(=O)(=O)N2CCc3cc(OC)c(OC)cc3C2)cc1
REMARK SMILES IDX 7 1 8 2 9 3 6 4 3 5 4 6 25 7 5 8 24 9 2 10 1 11 10 12 11 13
REMARK SMILES IDX 23 14 12 15 22 16 13 17 21 18 14 19 18 20 15 21 19 22 20 23
REMARK SMILES IDX 16 24 17 25
REMARK H PARENT
ROOT
ATOM      1  S   UNL     1       2.906 -12.393  49.838  1.00  0.00     0.243 S 
ATOM      2  O   UNL     1       4.327 -12.674  49.807  1.00  0.00    -0.207 OA
ATOM      3  O   UNL     1       2.276 -11.856  51.025  1.00  0.00    -0.207 OA
ENDROOT
BRANCH   1   4
ATOM      4  C   UNL     1       2.029 -13.873  49.405  1.00  0.00     0.082 A 
ATOM      5  C   UNL     1       0.673 -16.212  48.709  1.00  0.00     0.118 A 
ATOM      6  C   UNL     1       1.713 -15.730  47.905  1.00  0.00     0.048 A 
ATOM      7  C   UNL     1       0.315 -15.512  49.864  1.00  0.00     0.048 A 
ATOM      8  C   UNL     1       2.392 -14.560  48.245  1.00  0.00     0.025 A 
ATOM      9  C   UNL     1       0.991 -14.339  50.215  1.00  0.00     0.025 A 
BRANCH   5  10
ATOM     10  O   UNL     1       0.096 -17.368  48.259  1.00  0.00    -0.497 OA
ATOM     11  C   UNL     1      -0.122 -17.477  46.858  1.00  0.00     0.278 C 
ENDBRANCH   5  10
ENDBRANCH   1   4
BRANCH   1  12
ATOM     12  N   UNL     1       2.567 -11.351  48.532  1.00  0.00    -0.193 NA
ATOM     13  C   UNL     1       1.354 -10.514  48.741  1.00  0.00     0.107 C 
ATOM     14  C   UNL     1       3.716 -10.509  48.101  1.00  0.00     0.138 C 
ATOM     15  C   UNL     1       0.910  -9.936  47.396  1.00  0.00     0.053 C 
ATOM     16  C   UNL     1       3.370  -9.534  46.992  1.00  0.00    -0.026 A 
ATOM     17  C   UNL     1       2.037  -9.232  46.679  1.00  0.00    -0.038 A 
ATOM     18  C   UNL     1       4.405  -8.884  46.297  1.00  0.00     0.055 A 
ATOM     19  C   UNL     1       1.749  -8.316  45.655  1.00  0.00     0.054 A 
ATOM     20  C   UNL     1       4.120  -7.962  45.284  1.00  0.00     0.161 A 
ATOM     21  C   UNL     1       2.780  -7.677  44.958  1.00  0.00     0.161 A 
BRANCH  20  22
ATOM     22  O   UNL     1       5.072  -7.288  44.558  1.00  0.00    -0.493 OA
ATOM     23  C   UNL     1       5.909  -8.046  43.698  1.00  0.00     0.278 C 
ENDBRANCH  20  22
BRANCH  21  24
ATOM     24  O   UNL     1       2.585  -6.764  43.950  1.00  0.00    -0.493 OA
ATOM     25  C   UNL     1       1.917  -5.555  44.274  1.00  0.00     0.278 C 
ENDBRANCH  21  24
ENDBRANCH   1  12
TORSDOF 5
ENDMDL
MODEL 2
REMARK VINA RESULT:    -9.326      1.568      2.992
REMARK INTER + INTRA:         -12.613
REMARK INTER:                 -12.263
REMARK INTRA:                  -0.350
REMARK UNBOUND:                -0.562
REMARK SMILES COc1ccc(S(=O)(=O)N2CCc3cc(OC)c(OC)cc3C2)cc1
REMARK SMILES IDX 7 1 8 2 9 3 6 4 3 5 4 6 25 7 5 8 24 9 2 10 1 11 10 12 11 13
REMARK SMILES IDX 23 14 12 15 22 16 13 17 21 18 14 19 18 20 15 21 19 22 20 23
REMARK SMILES IDX 16 24 17 25
REMARK H PARENT
ROOT
ATOM      1  S   UNL     1       3.107 -12.425  50.192  1.00  0.00     0.243 S 
ATOM      2  O   UNL     1       4.515 -12.767  50.192  1.00  0.00    -0.207 OA
ATOM      3  O   UNL     1       2.433 -12.028  51.410  1.00  0.00    -0.207 OA
ENDROOT
BRANCH   1   4
ATOM      4  C   UNL     1       2.198 -13.788  49.512  1.00  0.00     0.082 A 
ATOM      5  C   UNL     1       0.742 -15.923  48.454  1.00  0.00     0.118 A 
ATOM      6  C   UNL     1       0.351 -15.328  49.659  1.00  0.00     0.048 A 
ATOM      7  C   UNL     1       1.870 -15.444  47.783  1.00  0.00     0.048 A 
ATOM      8  C   UNL     1       1.076 -14.263  50.195  1.00  0.00     0.025 A 
ATOM      9  C   UNL     1       2.602 -14.375  48.310  1.00  0.00     0.025 A 
BRANCH   5  10
ATOM     10  O   UNL     1      -0.058 -16.954  48.045  1.00  0.00    -0.497 OA
ATOM     11  C   UNL     1      -0.328 -17.048  46.651  1.00  0.00     0.278 C 
ENDBRANCH   5  10
ENDBRANCH   1   4
BRANCH   1  12
ATOM     12  N   UNL     1       2.883 -11.199  49.029  1.00  0.00    -0.193 NA
ATOM     13  C   UNL     1       3.695 -11.394  47.798  1.00  0.00     0.107 C 
ATOM     14  C   UNL     1       1.460 -10.934  48.681  1.00  0.00     0.138 C 
ATOM     15  C   UNL     1       3.740 -10.079  47.018  1.00  0.00     0.053 C 
ATOM     16  C   UNL     1       1.287  -9.897  47.588  1.00  0.00    -0.026 A 
ATOM     17  C   UNL     1       2.362  -9.515  46.772  1.00  0.00    -0.038 A 
ATOM     18  C   UNL     1       0.016  -9.343  47.357  1.00  0.00     0.055 A 
ATOM     19  C   UNL     1       2.167  -8.562  45.760  1.00  0.00     0.054 A 
ATOM     20  C   UNL     1      -0.183  -8.400  46.341  1.00  0.00     0.161 A 
ATOM     21  C   UNL     1       0.904  -8.005  45.537  1.00  0.00     0.161 A 
BRANCH  20  22
ATOM     22  O   UNL     1      -1.391  -7.813  46.054  1.00  0.00    -0.493 OA
ATOM     23  C   UNL     1      -1.899  -6.859  46.974  1.00  0.00     0.278 C 
ENDBRANCH  20  22
BRANCH  21  24
ATOM     24  O   UNL     1       0.627  -7.073  44.566  1.00  0.00    -0.493 OA
ATOM     25  C   UNL     1       0.751  -7.475  43.210  1.00  0.00     0.278 C 
ENDBRANCH  21  24
ENDBRANCH   1  12
TORSDOF 5
ENDMDL
MODEL 3
REMARK VINA RESULT:    -9.299      2.351      2.666
REMARK INTER + INTRA:         -12.579
REMARK INTER:                 -12.050
REMARK INTRA:                  -0.529
REMARK UNBOUND:                -0.562
REMARK SMILES COc1ccc(S(=O)(=O)N2CCc3cc(OC)c(OC)cc3C2)cc1
REMARK SMILES IDX 7 1 8 2 9 3 6 4 3 5 4 6 25 7 5 8 24 9 2 10 1 11 10 12 11 13
REMARK SMILES IDX 23 14 12 15 22 16 13 17 21 18 14 19 18 20 15 21 19 22 20 23
REMARK SMILES IDX 16 24 17 25
REMARK H PARENT
ROOT
ATOM      1  S   UNL     1       3.185 -12.316  49.450  1.00  0.00     0.243 S 
ATOM      2  O   UNL     1       4.327 -12.316  48.559  1.00  0.00    -0.207 OA
ATOM      3  O   UNL     1       3.355 -12.219  50.884  1.00  0.00    -0.207 OA
ENDROOT
BRANCH   1   4
ATOM      4  C   UNL     1       2.225 -13.775  49.135  1.00  0.00     0.082 A 
ATOM      5  C   UNL     1       0.738 -16.082  48.625  1.00  0.00     0.118 A 
ATOM      6  C   UNL     1       1.741 -15.675  47.738  1.00  0.00     0.048 A 
ATOM      7  C   UNL     1       0.483 -15.323  49.771  1.00  0.00     0.048 A 
ATOM      8  C   UNL     1       2.485 -14.521  47.984  1.00  0.00     0.025 A 
ATOM      9  C   UNL     1       1.225 -14.166  50.029  1.00  0.00     0.025 A 
BRANCH   5  10
ATOM     10  O   UNL     1       0.089 -17.230  48.261  1.00  0.00    -0.497 OA
ATOM     11  C   UNL     1       0.490 -17.839  47.040  1.00  0.00     0.278 C 
ENDBRANCH   5  10
ENDBRANCH   1   4
BRANCH   1  12
ATOM     12  N   UNL     1       2.148 -11.061  48.945  1.00  0.00    -0.193 NA
ATOM     13  C   UNL     1       2.454  -9.748  49.576  1.00  0.00     0.107 C 
ATOM     14  C   UNL     1       2.028 -10.917  47.468  1.00  0.00     0.138 C 
ATOM     15  C   UNL     1       1.260  -8.813  49.387  1.00  0.00     0.053 C 
ATOM     16  C   UNL     1       1.165  -9.745  47.042  1.00  0.00    -0.026 A 
ATOM     17  C   UNL     1       0.828  -8.724  47.943  1.00  0.00    -0.038 A 
ATOM     18  C   UNL     1       0.735  -9.655  45.707  1.00  0.00     0.055 A 
ATOM     19  C   UNL     1       0.038  -7.647  47.514  1.00  0.00     0.054 A 
ATOM     20  C   UNL     1      -0.044  -8.575  45.275  1.00  0.00     0.161 A 
ATOM     21  C   UNL     1      -0.398  -7.563  46.188  1.00  0.00     0.161 A 
BRANCH  20  22
ATOM     22  O   UNL     1      -0.505  -8.416  43.991  1.00  0.00    -0.493 OA
ATOM     23  C   UNL     1       0.422  -7.991  43.002  1.00  0.00     0.278 C 
ENDBRANCH  20  22
BRANCH  21  24
ATOM     24  O   UNL     1      -1.167  -6.541  45.687  1.00  0.00    -0.493 OA
ATOM     25  C   UNL     1      -2.262  -6.093  46.470  1.00  0.00     0.278 C 
ENDBRANCH  21  24
ENDBRANCH   1  12
TORSDOF 5
ENDMDL
MODEL 4
REMARK VINA RESULT:    -9.218      1.989      8.109
REMARK INTER + INTRA:         -12.474
REMARK INTER:                 -11.955
REMARK INTRA:                  -0.518
REMARK UNBOUND:                -0.562
REMARK SMILES COc1ccc(S(=O)(=O)N2CCc3cc(OC)c(OC)cc3C2)cc1
REMARK SMILES IDX 7 1 8 2 9 3 6 4 3 5 4 6 25 7 5 8 24 9 2 10 1 11 10 12 11 13
REMARK SMILES IDX 23 14 12 15 22 16 13 17 21 18 14 19 18 20 15 21 19 22 20 23
REMARK SMILES IDX 16 24 17 25
REMARK H PARENT
ROOT
ATOM      1  S   UNL     1       5.647 -10.388  47.589  1.00  0.00     0.243 S 
ATOM      2  O   UNL     1       5.631  -9.798  48.912  1.00  0.00    -0.207 OA
ATOM      3  O   UNL     1       6.888 -10.798  46.967  1.00  0.00    -0.207 OA
ENDROOT
BRANCH   1   4
ATOM      4  C   UNL     1       4.843  -9.275  46.466  1.00  0.00     0.082 A 
ATOM      5  C   UNL     1       3.592  -7.534  44.677  1.00  0.00     0.118 A 
ATOM      6  C   UNL     1       4.898  -7.976  44.439  1.00  0.00     0.048 A 
ATOM      7  C   UNL     1       2.916  -7.968  45.820  1.00  0.00     0.048 A 
ATOM      8  C   UNL     1       5.531  -8.843  45.331  1.00  0.00     0.025 A 
ATOM      9  C   UNL     1       3.540  -8.839  46.719  1.00  0.00     0.025 A 
BRANCH   5  10
ATOM     10  O   UNL     1       3.095  -6.689  43.723  1.00  0.00    -0.497 OA
ATOM     11  C   UNL     1       2.064  -5.796  44.125  1.00  0.00     0.278 C 
ENDBRANCH   5  10
ENDBRANCH   1   4
BRANCH   1  12
ATOM     12  N   UNL     1       4.594 -11.728  47.618  1.00  0.00    -0.193 NA
ATOM     13  C   UNL     1       5.269 -13.021  47.324  1.00  0.00     0.107 C 
ATOM     14  C   UNL     1       3.770 -11.836  48.853  1.00  0.00     0.138 C 
ATOM     15  C   UNL     1       4.211 -14.068  46.977  1.00  0.00     0.053 C 
ATOM     16  C   UNL     1       2.899 -13.077  48.893  1.00  0.00    -0.026 A 
ATOM     17  C   UNL     1       3.129 -14.156  48.026  1.00  0.00    -0.038 A 
ATOM     18  C   UNL     1       1.872 -13.170  49.848  1.00  0.00     0.055 A 
ATOM     19  C   UNL     1       2.313 -15.295  48.096  1.00  0.00     0.054 A 
ATOM     20  C   UNL     1       1.064 -14.310  49.927  1.00  0.00     0.161 A 
ATOM     21  C   UNL     1       1.286 -15.382  49.041  1.00  0.00     0.161 A 
BRANCH  20  22
ATOM     22  O   UNL     1       0.042 -14.476  50.829  1.00  0.00    -0.493 OA
ATOM     23  C   UNL     1       0.195 -13.898  52.118  1.00  0.00     0.278 C 
ENDBRANCH  20  22
BRANCH  21  24
ATOM     24  O   UNL     1       0.449 -16.462  49.181  1.00  0.00    -0.493 OA
ATOM     25  C   UNL     1       0.561 -17.511  48.231  1.00  0.00     0.278 C 
ENDBRANCH  21  24
ENDBRANCH   1  12
TORSDOF 5
ENDMDL
MODEL 5
REMARK VINA RESULT:    -8.615      2.658      3.523
REMARK INTER + INTRA:         -11.695
REMARK INTER:                 -11.340
REMARK INTRA:                  -0.355
REMARK UNBOUND:                -0.562
REMARK SMILES COc1ccc(S(=O)(=O)N2CCc3cc(OC)c(OC)cc3C2)cc1
REMARK SMILES IDX 7 1 8 2 9 3 6 4 3 5 4 6 25 7 5 8 24 9 2 10 1 11 10 12 11 13
REMARK SMILES IDX 23 14 12 15 22 16 13 17 21 18 14 19 18 20 15 21 19 22 20 23
REMARK SMILES IDX 16 24 17 25
REMARK H PARENT
ROOT
ATOM      1  S   UNL     1       3.509 -11.323  49.175  1.00  0.00     0.243 S 
ATOM      2  O   UNL     1       4.726 -11.585  48.435  1.00  0.00    -0.207 OA
ATOM      3  O   UNL     1       3.550 -10.757  50.507  1.00  0.00    -0.207 OA
ENDROOT
BRANCH   1   4
ATOM      4  C   UNL     1       2.575 -12.828  49.275  1.00  0.00     0.082 A 
ATOM      5  C   UNL     1       1.130 -15.212  49.424  1.00  0.00     0.118 A 
ATOM      6  C   UNL     1       2.169 -15.071  48.498  1.00  0.00     0.048 A 
ATOM      7  C   UNL     1       0.816 -14.149  50.275  1.00  0.00     0.048 A 
ATOM      8  C   UNL     1       2.894 -13.881  48.416  1.00  0.00     0.025 A 
ATOM      9  C   UNL     1       1.538 -12.952  50.203  1.00  0.00     0.025 A 
BRANCH   5  10
ATOM     10  O   UNL     1       0.506 -16.429  49.397  1.00  0.00    -0.497 OA
ATOM     11  C   UNL     1       0.729 -17.242  48.251  1.00  0.00     0.278 C 
ENDBRANCH   5  10
ENDBRANCH   1   4
BRANCH   1  12
ATOM     12  N   UNL     1       2.526 -10.328  48.200  1.00  0.00    -0.193 NA
ATOM     13  C   UNL     1       1.749 -11.081  47.179  1.00  0.00     0.107 C 
ATOM     14  C   UNL     1       1.638  -9.406  48.959  1.00  0.00     0.138 C 
ATOM     15  C   UNL     1       1.235 -10.102  46.122  1.00  0.00     0.053 C 
ATOM     16  C   UNL     1       0.716  -8.588  48.075  1.00  0.00    -0.026 A 
ATOM     17  C   UNL     1       0.494  -8.939  46.735  1.00  0.00    -0.038 A 
ATOM     18  C   UNL     1       0.033  -7.488  48.621  1.00  0.00     0.055 A 
ATOM     19  C   UNL     1      -0.374  -8.169  45.946  1.00  0.00     0.054 A 
ATOM     20  C   UNL     1      -0.842  -6.725  47.839  1.00  0.00     0.161 A 
ATOM     21  C   UNL     1      -1.046  -7.069  46.488  1.00  0.00     0.161 A 
BRANCH  20  22
ATOM     22  O   UNL     1      -1.544  -5.637  48.296  1.00  0.00    -0.493 OA
ATOM     23  C   UNL     1      -0.814  -4.457  48.598  1.00  0.00     0.278 C 
ENDBRANCH  20  22
BRANCH  21  24
ATOM     24  O   UNL     1      -1.917  -6.269  45.788  1.00  0.00    -0.493 OA
ATOM     25  C   UNL     1      -2.018  -6.471  44.387  1.00  0.00     0.278 C 
ENDBRANCH  21  24
ENDBRANCH   1  12
TORSDOF 5
ENDMDL
MODEL 6
REMARK VINA RESULT:    -8.595      1.989      7.390
REMARK INTER + INTRA:         -11.670
REMARK INTER:                 -11.280
REMARK INTRA:                  -0.389
REMARK UNBOUND:                -0.562
REMARK SMILES COc1ccc(S(=O)(=O)N2CCc3cc(OC)c(OC)cc3C2)cc1
REMARK SMILES IDX 7 1 8 2 9 3 6 4 3 5 4 6 25 7 5 8 24 9 2 10 1 11 10 12 11 13
REMARK SMILES IDX 23 14 12 15 22 16 13 17 21 18 14 19 18 20 15 21 19 22 20 23
REMARK SMILES IDX 16 24 17 25
REMARK H PARENT
ROOT
ATOM      1  S   UNL     1       3.224 -10.864  49.559  1.00  0.00     0.243 S 
ATOM      2  O   UNL     1       2.666 -10.410  50.816  1.00  0.00    -0.207 OA
ATOM      3  O   UNL     1       4.641 -10.754  49.285  1.00  0.00    -0.207 OA
ENDROOT
BRANCH   1   4
ATOM      4  C   UNL     1       2.371 -10.045  48.237  1.00  0.00     0.082 A 
ATOM      5  C   UNL     1       1.050  -8.763  46.137  1.00  0.00     0.118 A 
ATOM      6  C   UNL     1       2.448  -8.831  46.158  1.00  0.00     0.048 A 
ATOM      7  C   UNL     1       0.317  -9.339  47.178  1.00  0.00     0.048 A 
ATOM      8  C   UNL     1       3.115  -9.467  47.206  1.00  0.00     0.025 A 
ATOM      9  C   UNL     1       0.976  -9.981  48.232  1.00  0.00     0.025 A 
BRANCH   5  10
ATOM     10  O   UNL     1       0.530  -8.112  45.052  1.00  0.00    -0.497 OA
ATOM     11  C   UNL     1      -0.009  -8.920  44.013  1.00  0.00     0.278 C 
ENDBRANCH   5  10
ENDBRANCH   1   4
BRANCH   1  12
ATOM     12  N   UNL     1       2.764 -12.493  49.358  1.00  0.00    -0.193 NA
ATOM     13  C   UNL     1       1.515 -12.851  50.084  1.00  0.00     0.107 C 
ATOM     14  C   UNL     1       2.693 -12.942  47.940  1.00  0.00     0.138 C 
ATOM     15  C   UNL     1       1.413 -14.373  50.179  1.00  0.00     0.053 C 
ATOM     16  C   UNL     1       2.205 -14.370  47.781  1.00  0.00    -0.026 A 
ATOM     17  C   UNL     1       1.563 -15.040  48.833  1.00  0.00    -0.038 A 
ATOM     18  C   UNL     1       2.354 -15.016  46.542  1.00  0.00     0.055 A 
ATOM     19  C   UNL     1       1.112 -16.356  48.651  1.00  0.00     0.054 A 
ATOM     20  C   UNL     1       1.895 -16.325  46.355  1.00  0.00     0.161 A 
ATOM     21  C   UNL     1       1.269 -17.002  47.420  1.00  0.00     0.161 A 
BRANCH  20  22
ATOM     22  O   UNL     1       2.004 -17.024  45.178  1.00  0.00    -0.493 OA
ATOM     23  C   UNL     1       3.308 -17.359  44.725  1.00  0.00     0.278 C 
ENDBRANCH  20  22
BRANCH  21  24
ATOM     24  O   UNL     1       0.851 -18.283  47.156  1.00  0.00    -0.493 OA
ATOM     25  C   UNL     1       1.712 -19.349  47.528  1.00  0.00     0.278 C 
ENDBRANCH  21  24
ENDBRANCH   1  12
TORSDOF 5
ENDMDL
MODEL 7
REMARK VINA RESULT:    -8.594      2.016      3.413
REMARK INTER + INTRA:         -11.668
REMARK INTER:                 -11.423
REMARK INTRA:                  -0.245
REMARK UNBOUND:                -0.562
REMARK SMILES COc1ccc(S(=O)(=O)N2CCc3cc(OC)c(OC)cc3C2)cc1
REMARK SMILES IDX 7 1 8 2 9 3 6 4 3 5 4 6 25 7 5 8 24 9 2 10 1 11 10 12 11 13
REMARK SMILES IDX 23 14 12 15 22 16 13 17 21 18 14 19 18 20 15 21 19 22 20 23
REMARK SMILES IDX 16 24 17 25
REMARK H PARENT
ROOT
ATOM      1  S   UNL     1       5.121 -11.419  48.810  1.00  0.00     0.243 S 
ATOM      2  O   UNL     1       6.270 -11.871  48.052  1.00  0.00    -0.207 OA
ATOM      3  O   UNL     1       5.258 -10.962  50.176  1.00  0.00    -0.207 OA
ENDROOT
BRANCH   1   4
ATOM      4  C   UNL     1       3.904 -12.710  48.810  1.00  0.00     0.082 A 
ATOM      5  C   UNL     1       1.970 -14.723  48.825  1.00  0.00     0.118 A 
ATOM      6  C   UNL     1       2.051 -13.811  49.883  1.00  0.00     0.048 A 
ATOM      7  C   UNL     1       2.868 -14.622  47.759  1.00  0.00     0.048 A 
ATOM      8  C   UNL     1       3.017 -12.804  49.884  1.00  0.00     0.025 A 
ATOM      9  C   UNL     1       3.839 -13.616  47.748  1.00  0.00     0.025 A 
BRANCH   5  10
ATOM     10  O   UNL     1       0.977 -15.655  48.953  1.00  0.00    -0.497 OA
ATOM     11  C   UNL     1       0.050 -15.468  50.016  1.00  0.00     0.278 C 
ENDBRANCH   5  10
ENDBRANCH   1   4
BRANCH   1  12
ATOM     12  N   UNL     1       4.370 -10.186  47.904  1.00  0.00    -0.193 NA
ATOM     13  C   UNL     1       5.041  -9.911  46.605  1.00  0.00     0.107 C 
ATOM     14  C   UNL     1       2.906 -10.371  47.708  1.00  0.00     0.138 C 
ATOM     15  C   UNL     1       4.562  -8.561  46.071  1.00  0.00     0.053 C 
ATOM     16  C   UNL     1       2.272  -9.307  46.832  1.00  0.00    -0.026 A 
ATOM     17  C   UNL     1       3.056  -8.468  46.026  1.00  0.00    -0.038 A 
ATOM     18  C   UNL     1       0.873  -9.190  46.792  1.00  0.00     0.055 A 
ATOM     19  C   UNL     1       2.439  -7.501  45.217  1.00  0.00     0.054 A 
ATOM     20  C   UNL     1       0.255  -8.233  45.978  1.00  0.00     0.161 A 
ATOM     21  C   UNL     1       1.046  -7.379  45.185  1.00  0.00     0.161 A 
BRANCH  20  22
ATOM     22  O   UNL     1      -1.104  -8.055  45.883  1.00  0.00    -0.493 OA
ATOM     23  C   UNL     1      -1.754  -7.350  46.931  1.00  0.00     0.278 C 
ENDBRANCH  20  22
BRANCH  21  24
ATOM     24  O   UNL     1       0.365  -6.466  44.417  1.00  0.00    -0.493 OA
ATOM     25  C   UNL     1       0.225  -6.740  43.032  1.00  0.00     0.278 C 
ENDBRANCH  21  24
ENDBRANCH   1  12
TORSDOF 5
ENDMDL
MODEL 8
REMARK VINA RESULT:    -8.404      3.786      6.050
REMARK INTER + INTRA:         -11.423
REMARK INTER:                 -10.846
REMARK INTRA:                  -0.576
REMARK UNBOUND:                -0.562
REMARK SMILES COc1ccc(S(=O)(=O)N2CCc3cc(OC)c(OC)cc3C2)cc1
REMARK SMILES IDX 7 1 8 2 9 3 6 4 3 5 4 6 25 7 5 8 24 9 2 10 1 11 10 12 11 13
REMARK SMILES IDX 23 14 12 15 22 16 13 17 21 18 14 19 18 20 15 21 19 22 20 23
REMARK SMILES IDX 16 24 17 25
REMARK H PARENT
ROOT
ATOM      1  S   UNL     1       4.615 -11.101  48.581  1.00  0.00     0.243 S 
ATOM      2  O   UNL     1       5.324 -10.212  49.479  1.00  0.00    -0.207 OA
ATOM      3  O   UNL     1       4.238 -12.436  48.992  1.00  0.00    -0.207 OA
ENDROOT
BRANCH   1   4
ATOM      4  C   UNL     1       5.557 -11.259  47.086  1.00  0.00     0.082 A 
ATOM      5  C   UNL     1       7.053 -11.482  44.739  1.00  0.00     0.118 A 
ATOM      6  C   UNL     1       6.617 -10.229  45.185  1.00  0.00     0.048 A 
ATOM      7  C   UNL     1       6.731 -12.625  45.476  1.00  0.00     0.048 A 
ATOM      8  C   UNL     1       5.867 -10.111  46.356  1.00  0.00     0.025 A 
ATOM      9  C   UNL     1       5.982 -12.517  46.652  1.00  0.00     0.025 A 
BRANCH   5  10
ATOM     10  O   UNL     1       7.779 -11.451  43.580  1.00  0.00    -0.497 OA
ATOM     11  C   UNL     1       7.948 -10.183  42.958  1.00  0.00     0.278 C 
ENDBRANCH   5  10
ENDBRANCH   1   4
BRANCH   1  12
ATOM     12  N   UNL     1       3.212 -10.283  48.062  1.00  0.00    -0.193 NA
ATOM     13  C   UNL     1       2.161 -11.190  47.525  1.00  0.00     0.107 C 
ATOM     14  C   UNL     1       2.634  -9.351  49.069  1.00  0.00     0.138 C 
ATOM     15  C   UNL     1       1.148 -10.364  46.732  1.00  0.00     0.053 C 
ATOM     16  C   UNL     1       1.343  -8.696  48.618  1.00  0.00    -0.026 A 
ATOM     17  C   UNL     1       0.615  -9.197  47.529  1.00  0.00    -0.038 A 
ATOM     18  C   UNL     1       0.841  -7.595  49.333  1.00  0.00     0.055 A 
ATOM     19  C   UNL     1      -0.582  -8.576  47.143  1.00  0.00     0.054 A 
ATOM     20  C   UNL     1      -0.359  -6.981  48.957  1.00  0.00     0.161 A 
ATOM     21  C   UNL     1      -1.076  -7.475  47.850  1.00  0.00     0.161 A 
BRANCH  20  22
ATOM     22  O   UNL     1      -0.914  -5.902  49.601  1.00  0.00    -0.493 OA
ATOM     23  C   UNL     1      -0.887  -5.893  51.021  1.00  0.00     0.278 C 
ENDBRANCH  20  22
BRANCH  21  24
ATOM     24  O   UNL     1      -2.241  -6.814  47.543  1.00  0.00    -0.493 OA
ATOM     25  C   UNL     1      -2.281  -6.071  46.334  1.00  0.00     0.278 C 
ENDBRANCH  21  24
ENDBRANCH   1  12
TORSDOF 5
ENDMDL
MODEL 9
REMARK VINA RESULT:    -8.227      3.233      4.555
REMARK INTER + INTRA:         -11.194
REMARK INTER:                 -10.939
REMARK INTRA:                  -0.255
REMARK UNBOUND:                -0.562
REMARK SMILES COc1ccc(S(=O)(=O)N2CCc3cc(OC)c(OC)cc3C2)cc1
REMARK SMILES IDX 7 1 8 2 9 3 6 4 3 5 4 6 25 7 5 8 24 9 2 10 1 11 10 12 11 13
REMARK SMILES IDX 23 14 12 15 22 16 13 17 21 18 14 19 18 20 15 21 19 22 20 23
REMARK SMILES IDX 16 24 17 25
REMARK H PARENT
ROOT
ATOM      1  S   UNL     1       2.961 -12.556  49.444  1.00  0.00     0.243 S 
ATOM      2  O   UNL     1       3.620 -12.201  50.684  1.00  0.00    -0.207 OA
ATOM      3  O   UNL     1       2.138 -13.742  49.346  1.00  0.00    -0.207 OA
ENDROOT
BRANCH   1   4
ATOM      4  C   UNL     1       4.186 -12.663  48.166  1.00  0.00     0.082 A 
ATOM      5  C   UNL     1       6.132 -12.812  46.169  1.00  0.00     0.118 A 
ATOM      6  C   UNL     1       5.932 -11.621  46.876  1.00  0.00     0.048 A 
ATOM      7  C   UNL     1       5.348 -13.929  46.467  1.00  0.00     0.048 A 
ATOM      8  C   UNL     1       4.959 -11.538  47.873  1.00  0.00     0.025 A 
ATOM      9  C   UNL     1       4.372 -13.858  47.466  1.00  0.00     0.025 A 
BRANCH   5  10
ATOM     10  O   UNL     1       7.118 -12.752  45.222  1.00  0.00    -0.497 OA
ATOM     11  C   UNL     1       7.093 -11.641  44.334  1.00  0.00     0.278 C 
ENDBRANCH   5  10
ENDBRANCH   1   4
BRANCH   1  12
ATOM     12  N   UNL     1       2.026 -11.213  48.965  1.00  0.00    -0.193 NA
ATOM     13  C   UNL     1       2.471  -9.932  49.576  1.00  0.00     0.107 C 
ATOM     14  C   UNL     1       1.872 -11.065  47.491  1.00  0.00     0.138 C 
ATOM     15  C   UNL     1       1.361  -8.892  49.419  1.00  0.00     0.053 C 
ATOM     16  C   UNL     1       1.106  -9.821  47.085  1.00  0.00    -0.026 A 
ATOM     17  C   UNL     1       0.892  -8.770  47.989  1.00  0.00    -0.038 A 
ATOM     18  C   UNL     1       0.642  -9.696  45.764  1.00  0.00     0.055 A 
ATOM     19  C   UNL     1       0.190  -7.627  47.579  1.00  0.00     0.054 A 
ATOM     20  C   UNL     1      -0.049  -8.552  45.349  1.00  0.00     0.161 A 
ATOM     21  C   UNL     1      -0.279  -7.508  46.267  1.00  0.00     0.161 A 
BRANCH  20  22
ATOM     22  O   UNL     1      -0.534  -8.355  44.080  1.00  0.00    -0.493 OA
ATOM     23  C   UNL     1       0.405  -8.120  43.040  1.00  0.00     0.278 C 
ENDBRANCH  20  22
BRANCH  21  24
ATOM     24  O   UNL     1      -0.967  -6.422  45.783  1.00  0.00    -0.493 OA
ATOM     25  C   UNL     1      -2.235  -6.136  46.355  1.00  0.00     0.278 C 
ENDBRANCH  21  24
ENDBRANCH   1  12
TORSDOF 5
ENDMDL
MODEL 10
REMARK VINA RESULT:    -8.203      3.521      8.064
REMARK INTER + INTRA:         -11.162
REMARK INTER:                 -11.069
REMARK INTRA:                  -0.093
REMARK UNBOUND:                -0.562
REMARK SMILES COc1ccc(S(=O)(=O)N2CCc3cc(OC)c(OC)cc3C2)cc1
REMARK SMILES IDX 7 1 8 2 9 3 6 4 3 5 4 6 25 7 5 8 24 9 2 10 1 11 10 12 11 13
REMARK SMILES IDX 23 14 12 15 22 16 13 17 21 18 14 19 18 20 15 21 19 22 20 23
REMARK SMILES IDX 16 24 17 25
REMARK H PARENT
ROOT
ATOM      1  S   UNL     1       2.019  -6.878  44.364  1.00  0.00     0.243 S 
ATOM      2  O   UNL     1       2.875  -5.888  43.742  1.00  0.00    -0.207 OA
ATOM      3  O   UNL     1       1.022  -7.594  43.597  1.00  0.00    -0.207 OA
ENDROOT
BRANCH   1   4
ATOM      4  C   UNL     1       1.182  -6.118  45.731  1.00  0.00     0.082 A 
ATOM      5  C   UNL     1      -0.150  -4.948  47.888  1.00  0.00     0.118 A 
ATOM      6  C   UNL     1      -0.735  -6.006  47.185  1.00  0.00     0.048 A 
ATOM      7  C   UNL     1       1.108  -4.476  47.502  1.00  0.00     0.048 A 
ATOM      8  C   UNL     1      -0.077  -6.593  46.103  1.00  0.00     0.025 A 
ATOM      9  C   UNL     1       1.777  -5.059  46.421  1.00  0.00     0.025 A 
BRANCH   5  10
ATOM     10  O   UNL     1      -0.904  -4.469  48.924  1.00  0.00    -0.497 OA
ATOM     11  C   UNL     1      -0.975  -5.272  50.096  1.00  0.00     0.278 C 
ENDBRANCH   5  10
ENDBRANCH   1   4
BRANCH   1  12
ATOM     12  N   UNL     1       3.033  -8.018  45.125  1.00  0.00    -0.193 NA
ATOM     13  C   UNL     1       4.475  -7.659  45.072  1.00  0.00     0.107 C 
ATOM     14  C   UNL     1       2.631  -8.369  46.515  1.00  0.00     0.138 C 
ATOM     15  C   UNL     1       5.311  -8.896  45.402  1.00  0.00     0.053 C 
ATOM     16  C   UNL     1       3.590  -9.324  47.200  1.00  0.00    -0.026 A 
ATOM     17  C   UNL     1       4.879  -9.548  46.692  1.00  0.00    -0.038 A 
ATOM     18  C   UNL     1       3.199  -9.958  48.392  1.00  0.00     0.055 A 
ATOM     19  C   UNL     1       5.747 -10.428  47.356  1.00  0.00     0.054 A 
ATOM     20  C   UNL     1       4.068 -10.827  49.062  1.00  0.00     0.161 A 
ATOM     21  C   UNL     1       5.354 -11.065  48.537  1.00  0.00     0.161 A 
BRANCH  20  22
ATOM     22  O   UNL     1       3.762 -11.485  50.227  1.00  0.00    -0.493 OA
ATOM     23  C   UNL     1       2.430 -11.948  50.396  1.00  0.00     0.278 C 
ENDBRANCH  20  22
BRANCH  21  24
ATOM     24  O   UNL     1       6.144 -11.934  49.251  1.00  0.00    -0.493 OA
ATOM     25  C   UNL     1       5.894 -13.323  49.109  1.00  0.00     0.278 C 
ENDBRANCH  21  24
ENDBRANCH   1  12
TORSDOF 5
ENDMDL
