MODEL 1
REMARK VINA RESULT:    -7.849      0.000      0.000
REMARK INTER + INTRA:          -8.890
REMARK INTER:                  -9.226
REMARK INTRA:                   0.335
REMARK UNBOUND:                 0.335
REMARK SMILES Cc1ncc([N+](=O)[O-])n1S(=O)(=O)c1cc(Br)ccc1Br
REMARK SMILES IDX 1 1 2 2 3 3 4 4 5 5 9 6 10 7 11 8 12 9 13 10 14 11 19 12
REMARK SMILES IDX 15 13 18 14 17 15 20 16 16 17 6 18 7 19 8 20
REMARK H PARENT
ROOT
ATOM      1  C   UNL     1       0.907  -7.921  43.252  1.00  0.00     0.119 C 
ATOM      2  C   UNL     1      -0.162  -7.436  44.167  1.00  0.00     0.210 A 
ATOM      3  N   UNL     1      -1.256  -6.819  43.745  1.00  0.00    -0.212 NA
ATOM      4  C   UNL     1      -1.930  -6.415  44.867  1.00  0.00     0.219 A 
ATOM      5  C   UNL     1      -1.264  -6.836  45.985  1.00  0.00     0.358 A 
ATOM      6  N   UNL     1      -0.167  -7.527  45.551  1.00  0.00    -0.095 N 
ENDROOT
BRANCH   6   7
ATOM      7  S   UNL     1       1.111  -8.070  46.514  1.00  0.00     0.338 S 
ATOM      8  O   UNL     1       0.978  -7.440  47.812  1.00  0.00    -0.178 OA
ATOM      9  O   UNL     1       1.033  -9.513  46.376  1.00  0.00    -0.178 OA
BRANCH   7  10
ATOM     10  C   UNL     1       2.657  -7.517  45.851  1.00  0.00     0.124 A 
ATOM     11  C   UNL     1       3.636  -8.506  45.642  1.00  0.00     0.041 A 
ATOM     12  C   UNL     1       2.951  -6.179  45.573  1.00  0.00     0.040 A 
ATOM     13  C   UNL     1       4.882  -8.159  45.126  1.00  0.00     0.019 A 
ATOM     14  C   UNL     1       4.212  -5.847  45.054  1.00  0.00     0.018 A 
ATOM     15  C   UNL     1       5.174  -6.833  44.827  1.00  0.00     0.017 A 
ATOM     16  Br  UNL     1       1.781  -4.722  45.876  1.00  0.00    -0.049 Br
ATOM     17  Br  UNL     1       6.185  -9.495  44.835  1.00  0.00    -0.051 Br
ENDBRANCH   7  10
ENDBRANCH   6   7
BRANCH   5  18
ATOM     18  N   UNL     1      -1.596  -6.588  47.329  1.00  0.00    -0.025 N 
ATOM     19  O   UNL     1      -1.427  -5.438  47.739  1.00  0.00    -0.358 OA
ATOM     20  O   UNL     1      -2.089  -7.527  47.956  1.00  0.00    -0.358 OA
ENDBRANCH   5  18
TORSDOF 3
ENDMDL
MODEL 2
REMARK VINA RESULT:    -7.617      1.352      2.591
REMARK INTER + INTRA:          -8.618
REMARK INTER:                  -8.885
REMARK INTRA:                   0.267
REMARK UNBOUND:                 0.335
REMARK SMILES Cc1ncc([N+](=O)[O-])n1S(=O)(=O)c1cc(Br)ccc1Br
REMARK SMILES IDX 1 1 2 2 3 3 4 4 5 5 9 6 10 7 11 8 12 9 13 10 14 11 19 12
REMARK SMILES IDX 15 13 18 14 17 15 20 16 16 17 6 18 7 19 8 20
REMARK H PARENT
ROOT
ATOM      1  C   UNL     1      -1.435  -6.245  48.084  1.00  0.00     0.119 C 
ATOM      2  C   UNL     1      -1.274  -6.611  46.650  1.00  0.00     0.210 A 
ATOM      3  N   UNL     1      -2.196  -6.368  45.729  1.00  0.00    -0.212 NA
ATOM      4  C   UNL     1      -1.753  -6.953  44.573  1.00  0.00     0.219 A 
ATOM      5  C   UNL     1      -0.523  -7.517  44.780  1.00  0.00     0.358 A 
ATOM      6  N   UNL     1      -0.190  -7.262  46.081  1.00  0.00    -0.095 N 
ENDROOT
BRANCH   6   7
ATOM      7  S   UNL     1       1.122  -7.922  46.918  1.00  0.00     0.338 S 
ATOM      8  O   UNL     1       1.200  -7.258  48.203  1.00  0.00    -0.178 OA
ATOM      9  O   UNL     1       0.877  -9.351  46.833  1.00  0.00    -0.178 OA
BRANCH   7  10
ATOM     10  C   UNL     1       2.635  -7.553  46.077  1.00  0.00     0.124 A 
ATOM     11  C   UNL     1       3.580  -8.595  46.005  1.00  0.00     0.041 A 
ATOM     12  C   UNL     1       2.939  -6.302  45.535  1.00  0.00     0.040 A 
ATOM     13  C   UNL     1       4.799  -8.390  45.364  1.00  0.00     0.019 A 
ATOM     14  C   UNL     1       4.173  -6.113  44.893  1.00  0.00     0.018 A 
ATOM     15  C   UNL     1       5.099  -7.154  44.803  1.00  0.00     0.017 A 
ATOM     16  Br  UNL     1       1.820  -4.777  45.621  1.00  0.00    -0.049 Br
ATOM     17  Br  UNL     1       6.054  -9.798  45.260  1.00  0.00    -0.051 Br
ENDBRANCH   7  10
ENDBRANCH   6   7
BRANCH   5  18
ATOM     18  N   UNL     1       0.251  -8.253  43.866  1.00  0.00    -0.025 N 
ATOM     19  O   UNL     1       0.064  -9.472  43.836  1.00  0.00    -0.358 OA
ATOM     20  O   UNL     1       0.997  -7.606  43.129  1.00  0.00    -0.358 OA
ENDBRANCH   5  18
TORSDOF 3
ENDMDL
MODEL 3
REMARK VINA RESULT:    -7.540      2.355      3.102
REMARK INTER + INTRA:          -8.527
REMARK INTER:                  -9.151
REMARK INTRA:                   0.624
REMARK UNBOUND:                 0.335
REMARK SMILES Cc1ncc([N+](=O)[O-])n1S(=O)(=O)c1cc(Br)ccc1Br
REMARK SMILES IDX 1 1 2 2 3 3 4 4 5 5 9 6 10 7 11 8 12 9 13 10 14 11 19 12
REMARK SMILES IDX 15 13 18 14 17 15 20 16 16 17 6 18 7 19 8 20
REMARK H PARENT
ROOT
ATOM      1  C   UNL     1      -1.830  -7.749  44.129  1.00  0.00     0.119 C 
ATOM      2  C   UNL     1      -1.452  -7.267  45.486  1.00  0.00     0.210 A 
ATOM      3  N   UNL     1      -2.338  -6.928  46.411  1.00  0.00    -0.212 NA
ATOM      4  C   UNL     1      -1.625  -6.421  47.464  1.00  0.00     0.219 A 
ATOM      5  C   UNL     1      -0.285  -6.499  47.198  1.00  0.00     0.358 A 
ATOM      6  N   UNL     1      -0.164  -7.079  45.966  1.00  0.00    -0.095 N 
ENDROOT
BRANCH   6   7
ATOM      7  S   UNL     1       1.259  -7.209  45.063  1.00  0.00     0.338 S 
ATOM      8  O   UNL     1       0.927  -7.861  43.813  1.00  0.00    -0.178 OA
ATOM      9  O   UNL     1       1.780  -5.853  45.081  1.00  0.00    -0.178 OA
BRANCH   7  10
ATOM     10  C   UNL     1       2.412  -8.272  45.885  1.00  0.00     0.124 A 
ATOM     11  C   UNL     1       1.861  -9.292  46.684  1.00  0.00     0.041 A 
ATOM     12  C   UNL     1       3.799  -8.124  45.808  1.00  0.00     0.040 A 
ATOM     13  C   UNL     1       2.695 -10.173  47.368  1.00  0.00     0.019 A 
ATOM     14  C   UNL     1       4.625  -9.020  46.505  1.00  0.00     0.018 A 
ATOM     15  C   UNL     1       4.076 -10.044  47.279  1.00  0.00     0.017 A 
ATOM     16  Br  UNL     1       4.697  -6.759  44.851  1.00  0.00    -0.049 Br
ATOM     17  Br  UNL     1       1.946 -11.547  48.426  1.00  0.00    -0.051 Br
ENDBRANCH   7  10
ENDBRANCH   6   7
BRANCH   5  18
ATOM     18  N   UNL     1       0.779  -6.044  47.996  1.00  0.00    -0.025 N 
ATOM     19  O   UNL     1       1.111  -4.864  47.858  1.00  0.00    -0.358 OA
ATOM     20  O   UNL     1       1.240  -6.847  48.809  1.00  0.00    -0.358 OA
ENDBRANCH   5  18
TORSDOF 3
ENDMDL
MODEL 4
REMARK VINA RESULT:    -7.343      2.910      4.646
REMARK INTER + INTRA:          -8.295
REMARK INTER:                  -8.863
REMARK INTRA:                   0.568
REMARK UNBOUND:                 0.335
REMARK SMILES Cc1ncc([N+](=O)[O-])n1S(=O)(=O)c1cc(Br)ccc1Br
REMARK SMILES IDX 1 1 2 2 3 3 4 4 5 5 9 6 10 7 11 8 12 9 13 10 14 11 19 12
REMARK SMILES IDX 15 13 18 14 17 15 20 16 16 17 6 18 7 19 8 20
REMARK H PARENT
ROOT
ATOM      1  C   UNL     1      -1.179  -6.086  49.092  1.00  0.00     0.119 C 
ATOM      2  C   UNL     1      -0.096  -7.083  49.310  1.00  0.00     0.210 A 
ATOM      3  N   UNL     1       0.603  -7.164  50.433  1.00  0.00    -0.212 NA
ATOM      4  C   UNL     1       1.579  -8.100  50.215  1.00  0.00     0.219 A 
ATOM      5  C   UNL     1       1.441  -8.632  48.962  1.00  0.00     0.358 A 
ATOM      6  N   UNL     1       0.351  -8.029  48.399  1.00  0.00    -0.095 N 
ENDROOT
BRANCH   6   7
ATOM      7  S   UNL     1      -0.132  -8.155  46.784  1.00  0.00     0.338 S 
ATOM      8  O   UNL     1       0.253  -9.471  46.315  1.00  0.00    -0.178 OA
ATOM      9  O   UNL     1      -1.528  -7.759  46.829  1.00  0.00    -0.178 OA
BRANCH   7  10
ATOM     10  C   UNL     1       0.757  -6.994  45.786  1.00  0.00     0.124 A 
ATOM     11  C   UNL     1       1.332  -5.901  46.462  1.00  0.00     0.041 A 
ATOM     12  C   UNL     1       0.876  -7.092  44.397  1.00  0.00     0.040 A 
ATOM     13  C   UNL     1       2.047  -4.938  45.754  1.00  0.00     0.019 A 
ATOM     14  C   UNL     1       1.599  -6.112  43.699  1.00  0.00     0.018 A 
ATOM     15  C   UNL     1       2.187  -5.040  44.374  1.00  0.00     0.017 A 
ATOM     16  Br  UNL     1       0.094  -8.446  43.330  1.00  0.00    -0.049 Br
ATOM     17  Br  UNL     1       2.827  -3.482  46.671  1.00  0.00    -0.051 Br
ENDBRANCH   7  10
ENDBRANCH   6   7
BRANCH   5  18
ATOM     18  N   UNL     1       2.264  -9.584  48.335  1.00  0.00    -0.025 N 
ATOM     19  O   UNL     1       3.206  -9.149  47.669  1.00  0.00    -0.358 OA
ATOM     20  O   UNL     1       2.009 -10.767  48.563  1.00  0.00    -0.358 OA
ENDBRANCH   5  18
TORSDOF 3
ENDMDL
MODEL 5
REMARK VINA RESULT:    -7.200      5.477      7.134
REMARK INTER + INTRA:          -8.127
REMARK INTER:                  -8.787
REMARK INTRA:                   0.660
REMARK UNBOUND:                 0.335
REMARK SMILES Cc1ncc([N+](=O)[O-])n1S(=O)(=O)c1cc(Br)ccc1Br
REMARK SMILES IDX 1 1 2 2 3 3 4 4 5 5 9 6 10 7 11 8 12 9 13 10 14 11 19 12
REMARK SMILES IDX 15 13 18 14 17 15 20 16 16 17 6 18 7 19 8 20
REMARK H PARENT
ROOT
ATOM      1  C   UNL     1       6.429 -10.614  46.422  1.00  0.00     0.119 C 
ATOM      2  C   UNL     1       5.104 -10.032  46.770  1.00  0.00     0.210 A 
ATOM      3  N   UNL     1       4.558  -9.021  46.110  1.00  0.00    -0.212 NA
ATOM      4  C   UNL     1       3.417  -8.686  46.789  1.00  0.00     0.219 A 
ATOM      5  C   UNL     1       3.240  -9.536  47.847  1.00  0.00     0.358 A 
ATOM      6  N   UNL     1       4.278 -10.424  47.813  1.00  0.00    -0.095 N 
ENDROOT
BRANCH   6   7
ATOM      7  S   UNL     1       4.666 -11.547  49.016  1.00  0.00     0.338 S 
ATOM      8  O   UNL     1       5.960 -12.110  48.688  1.00  0.00    -0.178 OA
ATOM      9  O   UNL     1       4.470 -10.792  50.241  1.00  0.00    -0.178 OA
BRANCH   7  10
ATOM     10  C   UNL     1       3.519 -12.896  48.989  1.00  0.00     0.124 A 
ATOM     11  C   UNL     1       2.542 -12.904  50.003  1.00  0.00     0.041 A 
ATOM     12  C   UNL     1       3.564 -13.938  48.059  1.00  0.00     0.040 A 
ATOM     13  C   UNL     1       1.601 -13.930  50.058  1.00  0.00     0.019 A 
ATOM     14  C   UNL     1       2.609 -14.964  48.131  1.00  0.00     0.018 A 
ATOM     15  C   UNL     1       1.627 -14.958  49.124  1.00  0.00     0.017 A 
ATOM     16  Br  UNL     1       4.860 -14.121  46.691  1.00  0.00    -0.049 Br
ATOM     17  Br  UNL     1       0.285 -13.926  51.413  1.00  0.00    -0.051 Br
ENDBRANCH   7  10
ENDBRANCH   6   7
BRANCH   5  18
ATOM     18  N   UNL     1       2.222  -9.504  48.817  1.00  0.00    -0.025 N 
ATOM     19  O   UNL     1       2.383  -8.730  49.763  1.00  0.00    -0.358 OA
ATOM     20  O   UNL     1       1.231 -10.202  48.598  1.00  0.00    -0.358 OA
ENDBRANCH   5  18
TORSDOF 3
ENDMDL
MODEL 6
REMARK VINA RESULT:    -7.153     14.258     15.368
REMARK INTER + INTRA:          -8.072
REMARK INTER:                  -8.698
REMARK INTRA:                   0.627
REMARK UNBOUND:                 0.335
REMARK SMILES Cc1ncc([N+](=O)[O-])n1S(=O)(=O)c1cc(Br)ccc1Br
REMARK SMILES IDX 1 1 2 2 3 3 4 4 5 5 9 6 10 7 11 8 12 9 13 10 14 11 19 12
REMARK SMILES IDX 15 13 18 14 17 15 20 16 16 17 6 18 7 19 8 20
REMARK H PARENT
ROOT
ATOM      1  C   UNL     1      -0.724   1.218  29.544  1.00  0.00     0.119 C 
ATOM      2  C   UNL     1      -0.214  -0.180  29.507  1.00  0.00     0.210 A 
ATOM      3  N   UNL     1       0.243  -0.758  28.405  1.00  0.00    -0.212 NA
ATOM      4  C   UNL     1       0.497  -2.064  28.730  1.00  0.00     0.219 A 
ATOM      5  C   UNL     1       0.239  -2.271  30.058  1.00  0.00     0.358 A 
ATOM      6  N   UNL     1      -0.165  -1.070  30.570  1.00  0.00    -0.095 N 
ENDROOT
BRANCH   6   7
ATOM      7  S   UNL     1      -0.818  -0.813  32.108  1.00  0.00     0.338 S 
ATOM      8  O   UNL     1      -1.278   0.559  32.165  1.00  0.00    -0.178 OA
ATOM      9  O   UNL     1      -1.749  -1.917  32.255  1.00  0.00    -0.178 OA
BRANCH   7  10
ATOM     10  C   UNL     1       0.443  -0.964  33.342  1.00  0.00     0.124 A 
ATOM     11  C   UNL     1       1.773  -0.972  32.878  1.00  0.00     0.041 A 
ATOM     12  C   UNL     1       0.183  -1.110  34.707  1.00  0.00     0.040 A 
ATOM     13  C   UNL     1       2.827  -1.089  33.780  1.00  0.00     0.019 A 
ATOM     14  C   UNL     1       1.258  -1.228  35.602  1.00  0.00     0.018 A 
ATOM     15  C   UNL     1       2.576  -1.213  35.142  1.00  0.00     0.017 A 
ATOM     16  Br  UNL     1      -1.541  -1.205  35.483  1.00  0.00    -0.049 Br
ATOM     17  Br  UNL     1       4.608  -1.084  33.150  1.00  0.00    -0.051 Br
ENDBRANCH   7  10
ENDBRANCH   6   7
BRANCH   5  18
ATOM     18  N   UNL     1       0.325  -3.478  30.774  1.00  0.00    -0.025 N 
ATOM     19  O   UNL     1      -0.654  -4.225  30.722  1.00  0.00    -0.358 OA
ATOM     20  O   UNL     1       1.398  -3.710  31.334  1.00  0.00    -0.358 OA
ENDBRANCH   5  18
TORSDOF 3
ENDMDL
MODEL 7
REMARK VINA RESULT:    -7.147      2.741      3.564
REMARK INTER + INTRA:          -8.065
REMARK INTER:                  -8.754
REMARK INTRA:                   0.689
REMARK UNBOUND:                 0.335
REMARK SMILES Cc1ncc([N+](=O)[O-])n1S(=O)(=O)c1cc(Br)ccc1Br
REMARK SMILES IDX 1 1 2 2 3 3 4 4 5 5 9 6 10 7 11 8 12 9 13 10 14 11 19 12
REMARK SMILES IDX 15 13 18 14 17 15 20 16 16 17 6 18 7 19 8 20
REMARK H PARENT
ROOT
ATOM      1  C   UNL     1       2.207  -5.419  44.119  1.00  0.00     0.119 C 
ATOM      2  C   UNL     1       1.671  -5.445  45.508  1.00  0.00     0.210 A 
ATOM      3  N   UNL     1       1.670  -4.388  46.307  1.00  0.00    -0.212 NA
ATOM      4  C   UNL     1       1.224  -4.825  47.526  1.00  0.00     0.219 A 
ATOM      5  C   UNL     1       0.902  -6.153  47.455  1.00  0.00     0.358 A 
ATOM      6  N   UNL     1       1.136  -6.543  46.165  1.00  0.00    -0.095 N 
ENDROOT
BRANCH   6   7
ATOM      7  S   UNL     1       1.116  -8.132  45.589  1.00  0.00     0.338 S 
ATOM      8  O   UNL     1      -0.184  -8.693  45.898  1.00  0.00    -0.178 OA
ATOM      9  O   UNL     1       1.554  -7.985  44.213  1.00  0.00    -0.178 OA
BRANCH   7  10
ATOM     10  C   UNL     1       2.300  -9.116  46.462  1.00  0.00     0.124 A 
ATOM     11  C   UNL     1       1.780 -10.106  47.318  1.00  0.00     0.041 A 
ATOM     12  C   UNL     1       3.682  -8.934  46.371  1.00  0.00     0.040 A 
ATOM     13  C   UNL     1       2.640 -10.924  48.045  1.00  0.00     0.019 A 
ATOM     14  C   UNL     1       4.535  -9.767  47.112  1.00  0.00     0.018 A 
ATOM     15  C   UNL     1       4.017 -10.762  47.944  1.00  0.00     0.017 A 
ATOM     16  Br  UNL     1       4.539  -7.600  45.337  1.00  0.00    -0.049 Br
ATOM     17  Br  UNL     1       1.933 -12.258  49.181  1.00  0.00    -0.051 Br
ENDBRANCH   7  10
ENDBRANCH   6   7
BRANCH   5  18
ATOM     18  N   UNL     1       0.455  -6.987  48.494  1.00  0.00    -0.025 N 
ATOM     19  O   UNL     1       1.314  -7.422  49.264  1.00  0.00    -0.358 OA
ATOM     20  O   UNL     1      -0.763  -7.154  48.581  1.00  0.00    -0.358 OA
ENDBRANCH   5  18
TORSDOF 3
ENDMDL
MODEL 8
REMARK VINA RESULT:    -7.122      2.661      3.610
REMARK INTER + INTRA:          -8.035
REMARK INTER:                  -8.416
REMARK INTRA:                   0.381
REMARK UNBOUND:                 0.335
REMARK SMILES Cc1ncc([N+](=O)[O-])n1S(=O)(=O)c1cc(Br)ccc1Br
REMARK SMILES IDX 1 1 2 2 3 3 4 4 5 5 9 6 10 7 11 8 12 9 13 10 14 11 19 12
REMARK SMILES IDX 15 13 18 14 17 15 20 16 16 17 6 18 7 19 8 20
REMARK H PARENT
ROOT
ATOM      1  C   UNL     1       0.263  -5.145  48.450  1.00  0.00     0.119 C 
ATOM      2  C   UNL     1      -0.557  -5.840  47.420  1.00  0.00     0.210 A 
ATOM      3  N   UNL     1      -1.821  -6.190  47.612  1.00  0.00    -0.212 NA
ATOM      4  C   UNL     1      -2.194  -6.909  46.508  1.00  0.00     0.219 A 
ATOM      5  C   UNL     1      -1.161  -6.955  45.612  1.00  0.00     0.358 A 
ATOM      6  N   UNL     1      -0.136  -6.237  46.160  1.00  0.00    -0.095 N 
ENDROOT
BRANCH   6   7
ATOM      7  S   UNL     1       1.448  -6.159  45.573  1.00  0.00     0.338 S 
ATOM      8  O   UNL     1       1.386  -6.284  44.131  1.00  0.00    -0.178 OA
ATOM      9  O   UNL     1       1.966  -4.954  46.194  1.00  0.00    -0.178 OA
BRANCH   7  10
ATOM     10  C   UNL     1       2.385  -7.546  46.151  1.00  0.00     0.124 A 
ATOM     11  C   UNL     1       1.711  -8.446  46.998  1.00  0.00     0.041 A 
ATOM     12  C   UNL     1       3.732  -7.757  45.845  1.00  0.00     0.040 A 
ATOM     13  C   UNL     1       2.373  -9.563  47.500  1.00  0.00     0.019 A 
ATOM     14  C   UNL     1       4.385  -8.887  46.361  1.00  0.00     0.018 A 
ATOM     15  C   UNL     1       3.707  -9.791  47.182  1.00  0.00     0.017 A 
ATOM     16  Br  UNL     1       4.804  -6.602  44.795  1.00  0.00    -0.049 Br
ATOM     17  Br  UNL     1       1.457 -10.774  48.624  1.00  0.00    -0.051 Br
ENDBRANCH   7  10
ENDBRANCH   6   7
BRANCH   5  18
ATOM     18  N   UNL     1      -1.120  -7.631  44.380  1.00  0.00    -0.025 N 
ATOM     19  O   UNL     1      -1.461  -6.989  43.383  1.00  0.00    -0.358 OA
ATOM     20  O   UNL     1      -0.683  -8.783  44.398  1.00  0.00    -0.358 OA
ENDBRANCH   5  18
TORSDOF 3
ENDMDL
MODEL 9
REMARK VINA RESULT:    -7.073      6.244      7.861
REMARK INTER + INTRA:          -7.978
REMARK INTER:                  -8.829
REMARK INTRA:                   0.851
REMARK UNBOUND:                 0.335
REMARK SMILES Cc1ncc([N+](=O)[O-])n1S(=O)(=O)c1cc(Br)ccc1Br
REMARK SMILES IDX 1 1 2 2 3 3 4 4 5 5 9 6 10 7 11 8 12 9 13 10 14 11 19 12
REMARK SMILES IDX 15 13 18 14 17 15 20 16 16 17 6 18 7 19 8 20
REMARK H PARENT
ROOT
ATOM      1  C   UNL     1       5.529 -13.419  49.331  1.00  0.00     0.119 C 
ATOM      2  C   UNL     1       5.106 -12.236  48.533  1.00  0.00     0.210 A 
ATOM      3  N   UNL     1       5.923 -11.571  47.729  1.00  0.00    -0.212 NA
ATOM      4  C   UNL     1       5.221 -10.486  47.275  1.00  0.00     0.219 A 
ATOM      5  C   UNL     1       3.945 -10.519  47.768  1.00  0.00     0.358 A 
ATOM      6  N   UNL     1       3.848 -11.652  48.527  1.00  0.00    -0.095 N 
ENDROOT
BRANCH   6   7
ATOM      7  S   UNL     1       2.560 -12.060  49.542  1.00  0.00     0.338 S 
ATOM      8  O   UNL     1       3.078 -12.145  50.893  1.00  0.00    -0.178 OA
ATOM      9  O   UNL     1       1.547 -11.080  49.193  1.00  0.00    -0.178 OA
BRANCH   7  10
ATOM     10  C   UNL     1       1.952 -13.674  49.143  1.00  0.00     0.124 A 
ATOM     11  C   UNL     1       2.330 -14.192  47.889  1.00  0.00     0.041 A 
ATOM     12  C   UNL     1       1.109 -14.417  49.974  1.00  0.00     0.040 A 
ATOM     13  C   UNL     1       1.895 -15.453  47.493  1.00  0.00     0.019 A 
ATOM     14  C   UNL     1       0.679 -15.686  49.558  1.00  0.00     0.018 A 
ATOM     15  C   UNL     1       1.073 -16.206  48.324  1.00  0.00     0.017 A 
ATOM     16  Br  UNL     1       0.441 -13.834  51.647  1.00  0.00    -0.049 Br
ATOM     17  Br  UNL     1       2.419 -16.145  45.815  1.00  0.00    -0.051 Br
ENDBRANCH   7  10
ENDBRANCH   6   7
BRANCH   5  18
ATOM     18  N   UNL     1       2.925  -9.570  47.580  1.00  0.00    -0.025 N 
ATOM     19  O   UNL     1       2.885  -8.633  48.381  1.00  0.00    -0.358 OA
ATOM     20  O   UNL     1       2.205  -9.724  46.592  1.00  0.00    -0.358 OA
ENDBRANCH   5  18
TORSDOF 3
ENDMDL
MODEL 10
REMARK VINA RESULT:    -7.056      3.287      4.362
REMARK INTER + INTRA:          -7.958
REMARK INTER:                  -8.463
REMARK INTRA:                   0.506
REMARK UNBOUND:                 0.335
REMARK SMILES Cc1ncc([N+](=O)[O-])n1S(=O)(=O)c1cc(Br)ccc1Br
REMARK SMILES IDX 1 1 2 2 3 3 4 4 5 5 9 6 10 7 11 8 12 9 13 10 14 11 19 12
REMARK SMILES IDX 15 13 18 14 17 15 20 16 16 17 6 18 7 19 8 20
REMARK H PARENT
ROOT
ATOM      1  C   UNL     1       0.896  -7.079  48.940  1.00  0.00     0.119 C 
ATOM      2  C   UNL     1       1.100  -6.401  47.630  1.00  0.00     0.210 A 
ATOM      3  N   UNL     1       1.196  -5.086  47.499  1.00  0.00    -0.212 NA
ATOM      4  C   UNL     1       1.248  -4.833  46.154  1.00  0.00     0.219 A 
ATOM      5  C   UNL     1       1.235  -6.012  45.460  1.00  0.00     0.358 A 
ATOM      6  N   UNL     1       1.192  -7.013  46.389  1.00  0.00    -0.095 N 
ENDROOT
BRANCH   6   7
ATOM      7  S   UNL     1       0.937  -8.654  46.071  1.00  0.00     0.338 S 
ATOM      8  O   UNL     1      -0.362  -9.006  46.607  1.00  0.00    -0.178 OA
ATOM      9  O   UNL     1       1.207  -8.756  44.648  1.00  0.00    -0.178 OA
BRANCH   7  10
ATOM     10  C   UNL     1       2.118  -9.639  46.947  1.00  0.00     0.124 A 
ATOM     11  C   UNL     1       1.595 -10.591  47.843  1.00  0.00     0.041 A 
ATOM     12  C   UNL     1       3.501  -9.492  46.821  1.00  0.00     0.040 A 
ATOM     13  C   UNL     1       2.452 -11.408  48.576  1.00  0.00     0.019 A 
ATOM     14  C   UNL     1       4.352 -10.322  47.568  1.00  0.00     0.018 A 
ATOM     15  C   UNL     1       3.830 -11.280  48.440  1.00  0.00     0.017 A 
ATOM     16  Br  UNL     1       4.364  -8.208  45.730  1.00  0.00    -0.049 Br
ATOM     17  Br  UNL     1       1.741 -12.692  49.765  1.00  0.00    -0.051 Br
ENDBRANCH   7  10
ENDBRANCH   6   7
BRANCH   5  18
ATOM     18  N   UNL     1       1.228  -6.189  44.065  1.00  0.00    -0.025 N 
ATOM     19  O   UNL     1       0.125  -6.301  43.526  1.00  0.00    -0.358 OA
ATOM     20  O   UNL     1       2.322  -6.148  43.499  1.00  0.00    -0.358 OA
ENDBRANCH   5  18
TORSDOF 3
ENDMDL
