MODEL 1
REMARK VINA RESULT:    -8.287      0.000      0.000
REMARK INTER + INTRA:         -10.727
REMARK INTER:                 -10.225
REMARK INTRA:                  -0.502
REMARK UNBOUND:                -0.502
REMARK SMILES COc1ccc(C)cc1S(=O)(=O)Nc1ccccc1
REMARK SMILES IDX 3 1 4 2 5 3 6 4 7 5 8 6 9 7 2 8 1 9 10 10 11 11 12 12 13 13
REMARK SMILES IDX 14 15 15 16 19 17 16 18 18 19 17 20
REMARK H PARENT 13 14
ROOT
ATOM      1  C   UNL     1       2.482 -18.991  46.153  1.00  0.00     0.139 A 
ATOM      2  C   UNL     1       3.452 -19.419  45.239  1.00  0.00     0.048 A 
ATOM      3  C   UNL     1       3.618 -18.766  44.011  1.00  0.00     0.007 A 
ATOM      4  C   UNL     1       2.825 -17.666  43.673  1.00  0.00    -0.049 A 
ATOM      5  C   UNL     1       2.989 -16.984  42.347  1.00  0.00     0.044 C 
ATOM      6  C   UNL     1       1.839 -17.246  44.571  1.00  0.00     0.029 A 
ATOM      7  C   UNL     1       1.671 -17.906  45.800  1.00  0.00     0.129 A 
ENDROOT
BRANCH   1   8
ATOM      8  O   UNL     1       2.257 -19.592  47.358  1.00  0.00    -0.495 OA
ATOM      9  C   UNL     1       2.981 -20.780  47.650  1.00  0.00     0.278 C 
ENDBRANCH   1   8
BRANCH   7  10
ATOM     10  S   UNL     1       0.414 -17.315  46.911  1.00  0.00     0.265 S 
ATOM     11  O   UNL     1      -0.529 -18.398  47.121  1.00  0.00    -0.201 OA
ATOM     12  O   UNL     1      -0.028 -16.021  46.440  1.00  0.00    -0.201 OA
BRANCH  10  13
ATOM     13  N   UNL     1       1.272 -17.186  48.383  1.00  0.00    -0.280 N 
ATOM     14  H   UNL     1       0.866 -17.875  49.017  1.00  0.00     0.180 HD
BRANCH  13  15
ATOM     15  C   UNL     1       1.236 -15.877  48.964  1.00  0.00     0.049 A 
ATOM     16  C   UNL     1       2.216 -14.937  48.644  1.00  0.00     0.027 A 
ATOM     17  C   UNL     1       0.256 -15.578  49.909  1.00  0.00     0.027 A 
ATOM     18  C   UNL     1       2.191 -13.679  49.248  1.00  0.00     0.002 A 
ATOM     19  C   UNL     1       0.233 -14.321  50.512  1.00  0.00     0.002 A 
ATOM     20  C   UNL     1       1.198 -13.370  50.179  1.00  0.00     0.000 A 
ENDBRANCH  13  15
ENDBRANCH  10  13
ENDBRANCH   7  10
TORSDOF 4
ENDMDL
MODEL 2
REMARK VINA RESULT:    -8.190      8.620      9.799
REMARK INTER + INTRA:         -10.607
REMARK INTER:                 -10.697
REMARK INTRA:                   0.089
REMARK UNBOUND:                -0.502
REMARK SMILES COc1ccc(C)cc1S(=O)(=O)Nc1ccccc1
REMARK SMILES IDX 3 1 4 2 5 3 6 4 7 5 8 6 9 7 2 8 1 9 10 10 11 11 12 12 13 13
REMARK SMILES IDX 14 15 15 16 19 17 16 18 18 19 17 20
REMARK H PARENT 13 14
ROOT
ATOM      1  C   UNL     1       5.000  -9.233  46.417  1.00  0.00     0.139 A 
ATOM      2  C   UNL     1       5.828 -10.348  46.588  1.00  0.00     0.048 A 
ATOM      3  C   UNL     1       6.730 -10.732  45.588  1.00  0.00     0.007 A 
ATOM      4  C   UNL     1       6.832 -10.005  44.399  1.00  0.00    -0.049 A 
ATOM      5  C   UNL     1       7.781 -10.433  43.320  1.00  0.00     0.044 C 
ATOM      6  C   UNL     1       5.992  -8.902  44.211  1.00  0.00     0.029 A 
ATOM      7  C   UNL     1       5.085  -8.522  45.213  1.00  0.00     0.129 A 
ENDROOT
BRANCH   1   8
ATOM      8  O   UNL     1       4.088  -8.815  47.344  1.00  0.00    -0.495 OA
ATOM      9  C   UNL     1       4.247  -9.271  48.680  1.00  0.00     0.278 C 
ENDBRANCH   1   8
BRANCH   7  10
ATOM     10  S   UNL     1       4.056  -7.100  44.927  1.00  0.00     0.265 S 
ATOM     11  O   UNL     1       3.480  -7.236  43.601  1.00  0.00    -0.201 OA
ATOM     12  O   UNL     1       4.809  -5.921  45.297  1.00  0.00    -0.201 OA
BRANCH  10  13
ATOM     13  N   UNL     1       2.758  -7.377  46.002  1.00  0.00    -0.280 N 
ATOM     14  H   UNL     1       2.972  -8.241  46.500  1.00  0.00     0.180 HD
BRANCH  13  15
ATOM     15  C   UNL     1       1.480  -7.463  45.360  1.00  0.00     0.049 A 
ATOM     16  C   UNL     1       0.729  -6.310  45.128  1.00  0.00     0.027 A 
ATOM     17  C   UNL     1       0.961  -8.717  45.039  1.00  0.00     0.027 A 
ATOM     18  C   UNL     1      -0.532  -6.413  44.538  1.00  0.00     0.002 A 
ATOM     19  C   UNL     1      -0.298  -8.817  44.450  1.00  0.00     0.002 A 
ATOM     20  C   UNL     1      -1.043  -7.666  44.195  1.00  0.00     0.000 A 
ENDBRANCH  13  15
ENDBRANCH  10  13
ENDBRANCH   7  10
TORSDOF 4
ENDMDL
MODEL 3
REMARK VINA RESULT:    -7.893      8.621     10.018
REMARK INTER + INTRA:         -10.241
REMARK INTER:                  -9.994
REMARK INTRA:                  -0.247
REMARK UNBOUND:                -0.502
REMARK SMILES COc1ccc(C)cc1S(=O)(=O)Nc1ccccc1
REMARK SMILES IDX 3 1 4 2 5 3 6 4 7 5 8 6 9 7 2 8 1 9 10 10 11 11 12 12 13 13
REMARK SMILES IDX 14 15 15 16 19 17 16 18 18 19 17 20
REMARK H PARENT 13 14
ROOT
ATOM      1  C   UNL     1       5.737  -9.252  45.336  1.00  0.00     0.139 A 
ATOM      2  C   UNL     1       6.218 -10.357  46.048  1.00  0.00     0.048 A 
ATOM      3  C   UNL     1       5.657 -10.715  47.280  1.00  0.00     0.007 A 
ATOM      4  C   UNL     1       4.599  -9.983  47.824  1.00  0.00    -0.049 A 
ATOM      5  C   UNL     1       4.018 -10.354  49.156  1.00  0.00     0.044 C 
ATOM      6  C   UNL     1       4.128  -8.864  47.130  1.00  0.00     0.029 A 
ATOM      7  C   UNL     1       4.695  -8.504  45.896  1.00  0.00     0.129 A 
ENDROOT
BRANCH   1   8
ATOM      8  O   UNL     1       6.248  -8.839  44.139  1.00  0.00    -0.495 OA
ATOM      9  C   UNL     1       7.070  -9.750  43.421  1.00  0.00     0.278 C 
ENDBRANCH   1   8
BRANCH   7  10
ATOM     10  S   UNL     1       4.041  -7.084  45.049  1.00  0.00     0.265 S 
ATOM     11  O   UNL     1       3.583  -7.524  43.744  1.00  0.00    -0.201 OA
ATOM     12  O   UNL     1       4.997  -6.005  45.181  1.00  0.00    -0.201 OA
BRANCH  10  13
ATOM     13  N   UNL     1       2.614  -6.767  45.933  1.00  0.00    -0.280 N 
ATOM     14  H   UNL     1       2.719  -7.238  46.832  1.00  0.00     0.180 HD
BRANCH  13  15
ATOM     15  C   UNL     1       1.416  -7.192  45.273  1.00  0.00     0.049 A 
ATOM     16  C   UNL     1       0.608  -6.265  44.613  1.00  0.00     0.027 A 
ATOM     17  C   UNL     1       1.026  -8.528  45.360  1.00  0.00     0.027 A 
ATOM     18  C   UNL     1      -0.577  -6.687  44.009  1.00  0.00     0.002 A 
ATOM     19  C   UNL     1      -0.158  -8.947  44.756  1.00  0.00     0.002 A 
ATOM     20  C   UNL     1      -0.958  -8.028  44.076  1.00  0.00     0.000 A 
ENDBRANCH  13  15
ENDBRANCH  10  13
ENDBRANCH   7  10
TORSDOF 4
ENDMDL
MODEL 4
REMARK VINA RESULT:    -7.889      6.382      8.417
REMARK INTER + INTRA:         -10.236
REMARK INTER:                  -9.828
REMARK INTRA:                  -0.408
REMARK UNBOUND:                -0.502
REMARK SMILES COc1ccc(C)cc1S(=O)(=O)Nc1ccccc1
REMARK SMILES IDX 3 1 4 2 5 3 6 4 7 5 8 6 9 7 2 8 1 9 10 10 11 11 12 12 13 13
REMARK SMILES IDX 14 15 15 16 19 17 16 18 18 19 17 20
REMARK H PARENT 13 14
ROOT
ATOM      1  C   UNL     1       4.090  -8.336  45.776  1.00  0.00     0.139 A 
ATOM      2  C   UNL     1       4.499  -7.769  44.564  1.00  0.00     0.048 A 
ATOM      3  C   UNL     1       5.658  -8.216  43.918  1.00  0.00     0.007 A 
ATOM      4  C   UNL     1       6.429  -9.246  44.464  1.00  0.00    -0.049 A 
ATOM      5  C   UNL     1       7.684  -9.705  43.782  1.00  0.00     0.044 C 
ATOM      6  C   UNL     1       6.040  -9.803  45.686  1.00  0.00     0.029 A 
ATOM      7  C   UNL     1       4.880  -9.349  46.335  1.00  0.00     0.129 A 
ENDROOT
BRANCH   1   8
ATOM      8  O   UNL     1       2.981  -7.936  46.466  1.00  0.00    -0.495 OA
ATOM      9  C   UNL     1       2.059  -7.086  45.798  1.00  0.00     0.278 C 
ENDBRANCH   1   8
BRANCH   7  10
ATOM     10  S   UNL     1       4.422 -10.108  47.876  1.00  0.00     0.265 S 
ATOM     11  O   UNL     1       4.203  -9.045  48.840  1.00  0.00    -0.201 OA
ATOM     12  O   UNL     1       5.358 -11.178  48.144  1.00  0.00    -0.201 OA
BRANCH  10  13
ATOM     13  N   UNL     1       2.863 -10.713  47.526  1.00  0.00    -0.280 N 
ATOM     14  H   UNL     1       2.208  -9.953  47.711  1.00  0.00     0.180 HD
BRANCH  13  15
ATOM     15  C   UNL     1       2.510 -11.881  48.278  1.00  0.00     0.049 A 
ATOM     16  C   UNL     1       2.680 -13.151  47.726  1.00  0.00     0.027 A 
ATOM     17  C   UNL     1       1.927 -11.732  49.535  1.00  0.00     0.027 A 
ATOM     18  C   UNL     1       2.295 -14.278  48.454  1.00  0.00     0.002 A 
ATOM     19  C   UNL     1       1.543 -12.859  50.261  1.00  0.00     0.002 A 
ATOM     20  C   UNL     1       1.730 -14.133  49.722  1.00  0.00     0.000 A 
ENDBRANCH  13  15
ENDBRANCH  10  13
ENDBRANCH   7  10
TORSDOF 4
ENDMDL
MODEL 5
REMARK VINA RESULT:    -7.881      8.030     10.665
REMARK INTER + INTRA:         -10.226
REMARK INTER:                 -10.116
REMARK INTRA:                  -0.110
REMARK UNBOUND:                -0.502
REMARK SMILES COc1ccc(C)cc1S(=O)(=O)Nc1ccccc1
REMARK SMILES IDX 3 1 4 2 5 3 6 4 7 5 8 6 9 7 2 8 1 9 10 10 11 11 12 12 13 13
REMARK SMILES IDX 14 15 15 16 19 17 16 18 18 19 17 20
REMARK H PARENT 13 14
ROOT
ATOM      1  C   UNL     1      -0.527  -7.622  46.860  1.00  0.00     0.139 A 
ATOM      2  C   UNL     1      -0.082  -8.006  48.130  1.00  0.00     0.048 A 
ATOM      3  C   UNL     1       0.732  -9.133  48.294  1.00  0.00     0.007 A 
ATOM      4  C   UNL     1       1.129  -9.896  47.192  1.00  0.00    -0.049 A 
ATOM      5  C   UNL     1       1.980 -11.117  47.373  1.00  0.00     0.044 C 
ATOM      6  C   UNL     1       0.671  -9.531  45.922  1.00  0.00     0.029 A 
ATOM      7  C   UNL     1      -0.150  -8.403  45.761  1.00  0.00     0.129 A 
ENDROOT
BRANCH   1   8
ATOM      8  O   UNL     1      -1.335  -6.545  46.632  1.00  0.00    -0.495 OA
ATOM      9  C   UNL     1      -1.517  -5.619  47.695  1.00  0.00     0.278 C 
ENDBRANCH   1   8
BRANCH   7  10
ATOM     10  S   UNL     1      -0.685  -7.975  44.119  1.00  0.00     0.265 S 
ATOM     11  O   UNL     1      -2.125  -7.797  44.160  1.00  0.00    -0.201 OA
ATOM     12  O   UNL     1      -0.073  -8.902  43.193  1.00  0.00    -0.201 OA
BRANCH  10  13
ATOM     13  N   UNL     1      -0.052  -6.398  43.938  1.00  0.00    -0.280 N 
ATOM     14  H   UNL     1      -0.235  -6.121  42.973  1.00  0.00     0.180 HD
BRANCH  13  15
ATOM     15  C   UNL     1       1.344  -6.294  44.241  1.00  0.00     0.049 A 
ATOM     16  C   UNL     1       2.239  -7.260  43.779  1.00  0.00     0.027 A 
ATOM     17  C   UNL     1       1.788  -5.261  45.065  1.00  0.00     0.027 A 
ATOM     18  C   UNL     1       3.591  -7.168  44.115  1.00  0.00     0.002 A 
ATOM     19  C   UNL     1       3.139  -5.171  45.400  1.00  0.00     0.002 A 
ATOM     20  C   UNL     1       4.041  -6.122  44.922  1.00  0.00     0.000 A 
ENDBRANCH  13  15
ENDBRANCH  10  13
ENDBRANCH   7  10
TORSDOF 4
ENDMDL
MODEL 6
REMARK VINA RESULT:    -7.802      4.330      7.071
REMARK INTER + INTRA:         -10.129
REMARK INTER:                  -9.793
REMARK INTRA:                  -0.336
REMARK UNBOUND:                -0.502
REMARK SMILES COc1ccc(C)cc1S(=O)(=O)Nc1ccccc1
REMARK SMILES IDX 3 1 4 2 5 3 6 4 7 5 8 6 9 7 2 8 1 9 10 10 11 11 12 12 13 13
REMARK SMILES IDX 14 15 15 16 19 17 16 18 18 19 17 20
REMARK H PARENT 13 14
ROOT
ATOM      1  C   UNL     1       1.989 -14.316  48.782  1.00  0.00     0.139 A 
ATOM      2  C   UNL     1       1.116 -15.284  49.289  1.00  0.00     0.048 A 
ATOM      3  C   UNL     1       0.471 -15.095  50.518  1.00  0.00     0.007 A 
ATOM      4  C   UNL     1       0.678 -13.931  51.263  1.00  0.00    -0.049 A 
ATOM      5  C   UNL     1       0.005 -13.743  52.590  1.00  0.00     0.044 C 
ATOM      6  C   UNL     1       1.566 -12.968  50.773  1.00  0.00     0.029 A 
ATOM      7  C   UNL     1       2.215 -13.162  49.543  1.00  0.00     0.129 A 
ENDROOT
BRANCH   1   8
ATOM      8  O   UNL     1       2.661 -14.444  47.600  1.00  0.00    -0.495 OA
ATOM      9  C   UNL     1       2.167 -15.385  46.657  1.00  0.00     0.278 C 
ENDBRANCH   1   8
BRANCH   7  10
ATOM     10  S   UNL     1       3.318 -11.894  48.961  1.00  0.00     0.265 S 
ATOM     11  O   UNL     1       3.691 -11.080  50.103  1.00  0.00    -0.201 OA
ATOM     12  O   UNL     1       2.734 -11.300  47.778  1.00  0.00    -0.201 OA
BRANCH  10  13
ATOM     13  N   UNL     1       4.723 -12.791  48.582  1.00  0.00    -0.280 N 
ATOM     14  H   UNL     1       5.298 -12.799  49.425  1.00  0.00     0.180 HD
BRANCH  13  15
ATOM     15  C   UNL     1       5.460 -12.273  47.468  1.00  0.00     0.049 A 
ATOM     16  C   UNL     1       5.685 -10.901  47.349  1.00  0.00     0.027 A 
ATOM     17  C   UNL     1       5.885 -13.145  46.467  1.00  0.00     0.027 A 
ATOM     18  C   UNL     1       6.370 -10.407  46.238  1.00  0.00     0.002 A 
ATOM     19  C   UNL     1       6.569 -12.649  45.358  1.00  0.00     0.002 A 
ATOM     20  C   UNL     1       6.815 -11.281  45.245  1.00  0.00     0.000 A 
ENDBRANCH  13  15
ENDBRANCH  10  13
ENDBRANCH   7  10
TORSDOF 4
ENDMDL
MODEL 7
REMARK VINA RESULT:    -7.734     20.587     22.847
REMARK INTER + INTRA:         -10.045
REMARK INTER:                  -9.546
REMARK INTRA:                  -0.498
REMARK UNBOUND:                -0.502
REMARK SMILES COc1ccc(C)cc1S(=O)(=O)Nc1ccccc1
REMARK SMILES IDX 3 1 4 2 5 3 6 4 7 5 8 6 9 7 2 8 1 9 10 10 11 11 12 12 13 13
REMARK SMILES IDX 14 15 15 16 19 17 16 18 18 19 17 20
REMARK H PARENT 13 14
ROOT
ATOM      1  C   UNL     1       1.384  -1.781  32.588  1.00  0.00     0.139 A 
ATOM      2  C   UNL     1       2.023  -1.430  33.782  1.00  0.00     0.048 A 
ATOM      3  C   UNL     1       1.280  -1.100  34.923  1.00  0.00     0.007 A 
ATOM      4  C   UNL     1      -0.117  -1.122  34.897  1.00  0.00    -0.049 A 
ATOM      5  C   UNL     1      -0.909  -0.743  36.113  1.00  0.00     0.044 C 
ATOM      6  C   UNL     1      -0.763  -1.449  33.701  1.00  0.00     0.029 A 
ATOM      7  C   UNL     1      -0.016  -1.775  32.558  1.00  0.00     0.129 A 
ENDROOT
BRANCH   1   8
ATOM      8  O   UNL     1       2.047  -2.097  31.436  1.00  0.00    -0.495 OA
ATOM      9  C   UNL     1       2.892  -3.240  31.453  1.00  0.00     0.278 C 
ENDBRANCH   1   8
BRANCH   7  10
ATOM     10  S   UNL     1      -0.892  -2.203  31.070  1.00  0.00     0.265 S 
ATOM     11  O   UNL     1      -2.288  -1.859  31.269  1.00  0.00    -0.201 OA
ATOM     12  O   UNL     1      -0.499  -3.542  30.689  1.00  0.00    -0.201 OA
BRANCH  10  13
ATOM     13  N   UNL     1      -0.305  -1.040  29.964  1.00  0.00    -0.280 N 
ATOM     14  H   UNL     1       0.628  -0.780  30.284  1.00  0.00     0.180 HD
BRANCH  13  15
ATOM     15  C   UNL     1      -1.141   0.117  29.840  1.00  0.00     0.049 A 
ATOM     16  C   UNL     1      -1.113   1.114  30.816  1.00  0.00     0.027 A 
ATOM     17  C   UNL     1      -2.036   0.201  28.775  1.00  0.00     0.027 A 
ATOM     18  C   UNL     1      -1.962   2.216  30.703  1.00  0.00     0.002 A 
ATOM     19  C   UNL     1      -2.883   1.303  28.664  1.00  0.00     0.002 A 
ATOM     20  C   UNL     1      -2.843   2.313  29.625  1.00  0.00     0.000 A 
ENDBRANCH  13  15
ENDBRANCH  10  13
ENDBRANCH   7  10
TORSDOF 4
ENDMDL
MODEL 8
REMARK VINA RESULT:    -7.558     20.206     22.057
REMARK INTER + INTRA:          -9.827
REMARK INTER:                  -9.477
REMARK INTRA:                  -0.350
REMARK UNBOUND:                -0.502
REMARK SMILES COc1ccc(C)cc1S(=O)(=O)Nc1ccccc1
REMARK SMILES IDX 3 1 4 2 5 3 6 4 7 5 8 6 9 7 2 8 1 9 10 10 11 11 12 12 13 13
REMARK SMILES IDX 14 15 15 16 19 17 16 18 18 19 17 20
REMARK H PARENT 13 14
ROOT
ATOM      1  C   UNL     1       0.461  -1.266  34.169  1.00  0.00     0.139 A 
ATOM      2  C   UNL     1       1.480  -1.624  35.059  1.00  0.00     0.048 A 
ATOM      3  C   UNL     1       2.820  -1.349  34.764  1.00  0.00     0.007 A 
ATOM      4  C   UNL     1       3.173  -0.701  33.576  1.00  0.00    -0.049 A 
ATOM      5  C   UNL     1       4.612  -0.430  33.251  1.00  0.00     0.044 C 
ATOM      6  C   UNL     1       2.163  -0.360  32.671  1.00  0.00     0.029 A 
ATOM      7  C   UNL     1       0.819  -0.642  32.968  1.00  0.00     0.129 A 
ENDROOT
BRANCH   1   8
ATOM      8  O   UNL     1      -0.863  -1.520  34.388  1.00  0.00    -0.495 OA
ATOM      9  C   UNL     1      -1.453  -0.982  35.564  1.00  0.00     0.278 C 
ENDBRANCH   1   8
BRANCH   7  10
ATOM     10  S   UNL     1      -0.424  -0.166  31.788  1.00  0.00     0.265 S 
ATOM     11  O   UNL     1       0.258   0.391  30.634  1.00  0.00    -0.201 OA
ATOM     12  O   UNL     1      -1.443   0.584  32.489  1.00  0.00    -0.201 OA
BRANCH  10  13
ATOM     13  N   UNL     1      -1.013  -1.681  31.262  1.00  0.00    -0.280 N 
ATOM     14  H   UNL     1      -1.373  -2.156  32.090  1.00  0.00     0.180 HD
BRANCH  13  15
ATOM     15  C   UNL     1      -0.032  -2.488  30.599  1.00  0.00     0.049 A 
ATOM     16  C   UNL     1       0.288  -2.251  29.261  1.00  0.00     0.027 A 
ATOM     17  C   UNL     1       0.544  -3.559  31.281  1.00  0.00     0.027 A 
ATOM     18  C   UNL     1       1.216  -3.071  28.617  1.00  0.00     0.002 A 
ATOM     19  C   UNL     1       1.471  -4.376  30.636  1.00  0.00     0.002 A 
ATOM     20  C   UNL     1       1.810  -4.130  29.305  1.00  0.00     0.000 A 
ENDBRANCH  13  15
ENDBRANCH  10  13
ENDBRANCH   7  10
TORSDOF 4
ENDMDL
MODEL 9
REMARK VINA RESULT:    -7.534      7.286      8.726
REMARK INTER + INTRA:          -9.798
REMARK INTER:                  -9.360
REMARK INTRA:                  -0.438
REMARK UNBOUND:                -0.502
REMARK SMILES COc1ccc(C)cc1S(=O)(=O)Nc1ccccc1
REMARK SMILES IDX 3 1 4 2 5 3 6 4 7 5 8 6 9 7 2 8 1 9 10 10 11 11 12 12 13 13
REMARK SMILES IDX 14 15 15 16 19 17 16 18 18 19 17 20
REMARK H PARENT 13 14
ROOT
ATOM      1  C   UNL     1       3.747 -10.671  49.388  1.00  0.00     0.139 A 
ATOM      2  C   UNL     1       4.960 -11.340  49.190  1.00  0.00     0.048 A 
ATOM      3  C   UNL     1       5.735 -11.098  48.049  1.00  0.00     0.007 A 
ATOM      4  C   UNL     1       5.319 -10.176  47.085  1.00  0.00    -0.049 A 
ATOM      5  C   UNL     1       6.138  -9.938  45.851  1.00  0.00     0.044 C 
ATOM      6  C   UNL     1       4.097  -9.519  47.264  1.00  0.00     0.029 A 
ATOM      7  C   UNL     1       3.320  -9.767  48.407  1.00  0.00     0.129 A 
ENDROOT
BRANCH   1   8
ATOM      8  O   UNL     1       2.937 -10.871  50.469  1.00  0.00    -0.495 OA
ATOM      9  C   UNL     1       2.307 -12.139  50.597  1.00  0.00     0.278 C 
ENDBRANCH   1   8
BRANCH   7  10
ATOM     10  S   UNL     1       1.785  -8.888  48.592  1.00  0.00     0.265 S 
ATOM     11  O   UNL     1       1.867  -8.117  49.819  1.00  0.00    -0.201 OA
ATOM     12  O   UNL     1       0.704  -9.823  48.368  1.00  0.00    -0.201 OA
BRANCH  10  13
ATOM     13  N   UNL     1       1.884  -7.732  47.338  1.00  0.00    -0.280 N 
ATOM     14  H   UNL     1       1.838  -6.815  47.784  1.00  0.00     0.180 HD
BRANCH  13  15
ATOM     15  C   UNL     1       0.862  -7.865  46.343  1.00  0.00     0.049 A 
ATOM     16  C   UNL     1      -0.382  -7.259  46.525  1.00  0.00     0.027 A 
ATOM     17  C   UNL     1       1.096  -8.669  45.228  1.00  0.00     0.027 A 
ATOM     18  C   UNL     1      -1.381  -7.430  45.566  1.00  0.00     0.002 A 
ATOM     19  C   UNL     1       0.096  -8.840  44.272  1.00  0.00     0.002 A 
ATOM     20  C   UNL     1      -1.142  -8.217  44.438  1.00  0.00     0.000 A 
ENDBRANCH  13  15
ENDBRANCH  10  13
ENDBRANCH   7  10
TORSDOF 4
ENDMDL
MODEL 10
REMARK VINA RESULT:    -7.518      4.836      7.035
REMARK INTER + INTRA:          -9.778
REMARK INTER:                  -9.285
REMARK INTRA:                  -0.493
REMARK UNBOUND:                -0.502
REMARK SMILES COc1ccc(C)cc1S(=O)(=O)Nc1ccccc1
REMARK SMILES IDX 3 1 4 2 5 3 6 4 7 5 8 6 9 7 2 8 1 9 10 10 11 11 12 12 13 13
REMARK SMILES IDX 14 15 15 16 19 17 16 18 18 19 17 20
REMARK H PARENT 13 14
ROOT
ATOM      1  C   UNL     1       3.292 -13.599  48.365  1.00  0.00     0.139 A 
ATOM      2  C   UNL     1       2.540 -14.778  48.327  1.00  0.00     0.048 A 
ATOM      3  C   UNL     1       1.461 -14.969  49.199  1.00  0.00     0.007 A 
ATOM      4  C   UNL     1       1.105 -13.983  50.122  1.00  0.00    -0.049 A 
ATOM      5  C   UNL     1      -0.035 -14.201  51.072  1.00  0.00     0.044 C 
ATOM      6  C   UNL     1       1.865 -12.811  50.182  1.00  0.00     0.029 A 
ATOM      7  C   UNL     1       2.950 -12.623  49.309  1.00  0.00     0.129 A 
ENDROOT
BRANCH   1   8
ATOM      8  O   UNL     1       4.365 -13.355  47.555  1.00  0.00    -0.495 OA
ATOM      9  C   UNL     1       4.948 -14.462  46.880  1.00  0.00     0.278 C 
ENDBRANCH   1   8
BRANCH   7  10
ATOM     10  S   UNL     1       3.868 -11.104  49.417  1.00  0.00     0.265 S 
ATOM     11  O   UNL     1       5.208 -11.433  49.870  1.00  0.00    -0.201 OA
ATOM     12  O   UNL     1       3.056 -10.139  50.126  1.00  0.00    -0.201 OA
BRANCH  10  13
ATOM     13  N   UNL     1       4.051 -10.681  47.772  1.00  0.00    -0.280 N 
ATOM     14  H   UNL     1       4.939 -10.183  47.697  1.00  0.00     0.180 HD
BRANCH  13  15
ATOM     15  C   UNL     1       2.978  -9.887  47.254  1.00  0.00     0.049 A 
ATOM     16  C   UNL     1       3.170  -8.531  46.986  1.00  0.00     0.027 A 
ATOM     17  C   UNL     1       1.719 -10.464  47.091  1.00  0.00     0.027 A 
ATOM     18  C   UNL     1       2.104  -7.760  46.519  1.00  0.00     0.002 A 
ATOM     19  C   UNL     1       0.656  -9.693  46.624  1.00  0.00     0.002 A 
ATOM     20  C   UNL     1       0.849  -8.342  46.334  1.00  0.00     0.000 A 
ENDBRANCH  13  15
ENDBRANCH  10  13
ENDBRANCH   7  10
TORSDOF 4
ENDMDL
