MODEL 1
REMARK VINA RESULT:    -8.008      0.000      0.000
REMARK INTER + INTRA:         -10.209
REMARK INTER:                  -9.881
REMARK INTRA:                  -0.328
REMARK UNBOUND:                -0.328
REMARK SMILES N#CCc1ccc(NS(=O)(=O)c2cccs2)cc1
REMARK SMILES IDX 8 1 7 3 4 4 5 5 18 6 6 7 17 8 3 9 1 10 2 11 9 12 10 13 11 14
REMARK SMILES IDX 12 15 13 16 16 17 14 18 15 19
REMARK H PARENT 8 2
ROOT
ATOM      1  N   UNL     1       2.797  -6.766  45.956  1.00  0.00    -0.279 N 
ATOM      2  H   UNL     1       3.084  -5.792  46.058  1.00  0.00     0.180 HD
ENDROOT
BRANCH   1   3
ATOM      3  C   UNL     1       3.864  -7.636  45.577  1.00  0.00     0.049 A 
ATOM      4  C   UNL     1       6.035  -9.266  44.872  1.00  0.00    -0.034 A 
ATOM      5  C   UNL     1       5.670  -8.178  44.065  1.00  0.00     0.007 A 
ATOM      6  C   UNL     1       5.296  -9.529  46.035  1.00  0.00     0.007 A 
ATOM      7  C   UNL     1       4.592  -7.363  44.421  1.00  0.00     0.027 A 
ATOM      8  C   UNL     1       4.218  -8.713  46.389  1.00  0.00     0.027 A 
BRANCH   4   9
ATOM      9  C   UNL     1       7.191 -10.158  44.480  1.00  0.00     0.155 C 
ATOM     10  N   UNL     1       6.896 -12.643  45.290  1.00  0.00    -0.198 NA
ATOM     11  C   UNL     1       7.016 -11.543  44.937  1.00  0.00     0.067 C 
ENDBRANCH   4   9
ENDBRANCH   1   3
BRANCH   1  12
ATOM     12  S   UNL     1       1.428  -6.791  44.946  1.00  0.00     0.271 S 
ATOM     13  O   UNL     1       1.567  -5.682  44.025  1.00  0.00    -0.200 OA
ATOM     14  O   UNL     1       1.241  -8.140  44.453  1.00  0.00    -0.200 OA
BRANCH  12  15
ATOM     15  C   UNL     1      -0.015  -6.447  45.923  1.00  0.00     0.140 A 
ATOM     16  C   UNL     1      -1.366  -6.565  45.653  1.00  0.00     0.034 A 
ATOM     17  S   UNL     1       0.260  -5.874  47.512  1.00  0.00    -0.131 S 
ATOM     18  C   UNL     1      -2.177  -6.179  46.758  1.00  0.00     0.013 A 
ATOM     19  C   UNL     1      -1.418  -5.781  47.837  1.00  0.00     0.066 A 
ENDBRANCH  12  15
ENDBRANCH   1  12
TORSDOF 4
ENDMDL
MODEL 2
REMARK VINA RESULT:    -7.837     14.250     15.660
REMARK INTER + INTRA:          -9.998
REMARK INTER:                  -9.404
REMARK INTRA:                  -0.594
REMARK UNBOUND:                -0.328
REMARK SMILES N#CCc1ccc(NS(=O)(=O)c2cccs2)cc1
REMARK SMILES IDX 8 1 7 3 4 4 5 5 18 6 6 7 17 8 3 9 1 10 2 11 9 12 10 13 11 14
REMARK SMILES IDX 12 15 13 16 16 17 14 18 15 19
REMARK H PARENT 8 2
ROOT
ATOM      1  N   UNL     1      -0.622   0.218  31.478  1.00  0.00    -0.279 N 
ATOM      2  H   UNL     1      -0.172   0.944  30.919  1.00  0.00     0.180 HD
ENDROOT
BRANCH   1   3
ATOM      3  C   UNL     1       0.255  -0.404  32.417  1.00  0.00     0.049 A 
ATOM      4  C   UNL     1       1.944  -1.730  34.220  1.00  0.00    -0.034 A 
ATOM      5  C   UNL     1       0.565  -1.652  34.463  1.00  0.00     0.007 A 
ATOM      6  C   UNL     1       2.467  -1.130  33.065  1.00  0.00     0.007 A 
ATOM      7  C   UNL     1      -0.276  -0.997  33.560  1.00  0.00     0.027 A 
ATOM      8  C   UNL     1       1.624  -0.475  32.164  1.00  0.00     0.027 A 
BRANCH   4   9
ATOM      9  C   UNL     1       2.858  -2.424  35.204  1.00  0.00     0.155 C 
ATOM     10  N   UNL     1       4.984  -1.002  35.818  1.00  0.00    -0.198 NA
ATOM     11  C   UNL     1       4.042  -1.622  35.540  1.00  0.00     0.067 C 
ENDBRANCH   4   9
ENDBRANCH   1   3
BRANCH   1  12
ATOM     12  S   UNL     1      -1.421  -0.831  30.403  1.00  0.00     0.271 S 
ATOM     13  O   UNL     1      -2.627  -1.275  31.070  1.00  0.00    -0.200 OA
ATOM     14  O   UNL     1      -1.488  -0.198  29.102  1.00  0.00    -0.200 OA
BRANCH  12  15
ATOM     15  C   UNL     1      -0.423  -2.281  30.165  1.00  0.00     0.140 A 
ATOM     16  C   UNL     1      -0.398  -3.504  30.810  1.00  0.00     0.034 A 
ATOM     17  S   UNL     1       0.732  -2.213  28.904  1.00  0.00    -0.131 S 
ATOM     18  C   UNL     1       0.578  -4.387  30.264  1.00  0.00     0.013 A 
ATOM     19  C   UNL     1       1.265  -3.808  29.219  1.00  0.00     0.066 A 
ENDBRANCH  12  15
ENDBRANCH   1  12
TORSDOF 4
ENDMDL
MODEL 3
REMARK VINA RESULT:    -7.686      2.250      2.757
REMARK INTER + INTRA:          -9.812
REMARK INTER:                  -9.432
REMARK INTRA:                  -0.379
REMARK UNBOUND:                -0.328
REMARK SMILES N#CCc1ccc(NS(=O)(=O)c2cccs2)cc1
REMARK SMILES IDX 8 1 7 3 4 4 5 5 18 6 6 7 17 8 3 9 1 10 2 11 9 12 10 13 11 14
REMARK SMILES IDX 12 15 13 16 16 17 14 18 15 19
REMARK H PARENT 8 2
ROOT
ATOM      1  N   UNL     1       2.237  -7.852  47.683  1.00  0.00    -0.279 N 
ATOM      2  H   UNL     1       2.192  -6.838  47.573  1.00  0.00     0.180 HD
ENDROOT
BRANCH   1   3
ATOM      3  C   UNL     1       3.345  -8.449  47.011  1.00  0.00     0.049 A 
ATOM      4  C   UNL     1       5.590  -9.535  45.726  1.00  0.00    -0.034 A 
ATOM      5  C   UNL     1       4.905  -8.447  45.165  1.00  0.00     0.007 A 
ATOM      6  C   UNL     1       5.132 -10.074  46.938  1.00  0.00     0.007 A 
ATOM      7  C   UNL     1       3.791  -7.903  45.809  1.00  0.00     0.027 A 
ATOM      8  C   UNL     1       4.018  -9.529  47.580  1.00  0.00     0.027 A 
BRANCH   4   9
ATOM      9  C   UNL     1       6.785 -10.135  45.023  1.00  0.00     0.155 C 
ATOM     10  N   UNL     1       6.967 -12.740  45.338  1.00  0.00    -0.198 NA
ATOM     11  C   UNL     1       6.878 -11.590  45.205  1.00  0.00     0.067 C 
ENDBRANCH   4   9
ENDBRANCH   1   3
BRANCH   1  12
ATOM     12  S   UNL     1       0.705  -8.476  47.285  1.00  0.00     0.271 S 
ATOM     13  O   UNL     1       0.777  -9.910  47.468  1.00  0.00    -0.200 OA
ATOM     14  O   UNL     1      -0.305  -7.695  47.969  1.00  0.00    -0.200 OA
BRANCH  12  15
ATOM     15  C   UNL     1       0.407  -8.211  45.554  1.00  0.00     0.140 A 
ATOM     16  C   UNL     1       0.366  -9.078  44.478  1.00  0.00     0.034 A 
ATOM     17  S   UNL     1       0.091  -6.599  45.073  1.00  0.00    -0.131 S 
ATOM     18  C   UNL     1       0.075  -8.411  43.253  1.00  0.00     0.013 A 
ATOM     19  C   UNL     1      -0.097  -7.057  43.435  1.00  0.00     0.066 A 
ENDBRANCH  12  15
ENDBRANCH   1  12
TORSDOF 4
ENDMDL
MODEL 4
REMARK VINA RESULT:    -7.593      3.898      7.082
REMARK INTER + INTRA:          -9.696
REMARK INTER:                  -9.301
REMARK INTRA:                  -0.396
REMARK UNBOUND:                -0.328
REMARK SMILES N#CCc1ccc(NS(=O)(=O)c2cccs2)cc1
REMARK SMILES IDX 8 1 7 3 4 4 5 5 18 6 6 7 17 8 3 9 1 10 2 11 9 12 10 13 11 14
REMARK SMILES IDX 12 15 13 16 16 17 14 18 15 19
REMARK H PARENT 8 2
ROOT
ATOM      1  N   UNL     1       1.637 -10.974  48.526  1.00  0.00    -0.279 N 
ATOM      2  H   UNL     1       1.823 -11.878  48.091  1.00  0.00     0.180 HD
ENDROOT
BRANCH   1   3
ATOM      3  C   UNL     1       0.947 -10.061  47.672  1.00  0.00     0.049 A 
ATOM      4  C   UNL     1      -0.468  -8.359  45.950  1.00  0.00    -0.034 A 
ATOM      5  C   UNL     1       0.571  -9.163  45.460  1.00  0.00     0.007 A 
ATOM      6  C   UNL     1      -0.786  -8.416  47.315  1.00  0.00     0.007 A 
ATOM      7  C   UNL     1       1.271 -10.015  46.317  1.00  0.00     0.027 A 
ATOM      8  C   UNL     1      -0.084  -9.268  48.171  1.00  0.00     0.027 A 
BRANCH   4   9
ATOM      9  C   UNL     1      -1.215  -7.424  45.027  1.00  0.00     0.155 C 
ATOM     10  N   UNL     1       0.198  -6.695  42.932  1.00  0.00    -0.198 NA
ATOM     11  C   UNL     1      -0.417  -7.023  43.861  1.00  0.00     0.067 C 
ENDBRANCH   4   9
ENDBRANCH   1   3
BRANCH   1  12
ATOM     12  S   UNL     1       3.104 -10.411  49.181  1.00  0.00     0.271 S 
ATOM     13  O   UNL     1       2.961  -8.982  49.359  1.00  0.00    -0.200 OA
ATOM     14  O   UNL     1       3.469 -11.261  50.295  1.00  0.00    -0.200 OA
BRANCH  12  15
ATOM     15  C   UNL     1       4.394 -10.636  47.980  1.00  0.00     0.140 A 
ATOM     16  C   UNL     1       5.032  -9.752  47.130  1.00  0.00     0.034 A 
ATOM     17  S   UNL     1       5.010 -12.224  47.812  1.00  0.00    -0.131 S 
ATOM     18  C   UNL     1       6.031 -10.386  46.337  1.00  0.00     0.013 A 
ATOM     19  C   UNL     1       6.123 -11.733  46.609  1.00  0.00     0.066 A 
ENDBRANCH  12  15
ENDBRANCH   1  12
TORSDOF 4
ENDMDL
MODEL 5
REMARK VINA RESULT:    -7.505      6.441      7.975
REMARK INTER + INTRA:          -9.588
REMARK INTER:                  -9.232
REMARK INTRA:                  -0.356
REMARK UNBOUND:                -0.328
REMARK SMILES N#CCc1ccc(NS(=O)(=O)c2cccs2)cc1
REMARK SMILES IDX 8 1 7 3 4 4 5 5 18 6 6 7 17 8 3 9 1 10 2 11 9 12 10 13 11 14
REMARK SMILES IDX 12 15 13 16 16 17 14 18 15 19
REMARK H PARENT 8 2
ROOT
ATOM      1  N   UNL     1       3.141 -13.068  49.719  1.00  0.00    -0.279 N 
ATOM      2  H   UNL     1       4.143 -13.160  49.550  1.00  0.00     0.180 HD
ENDROOT
BRANCH   1   3
ATOM      3  C   UNL     1       2.361 -14.080  49.083  1.00  0.00     0.049 A 
ATOM      4  C   UNL     1       0.915 -16.145  47.852  1.00  0.00    -0.034 A 
ATOM      5  C   UNL     1       1.956 -15.499  47.168  1.00  0.00     0.007 A 
ATOM      6  C   UNL     1       0.605 -15.739  49.158  1.00  0.00     0.007 A 
ATOM      7  C   UNL     1       2.680 -14.476  47.785  1.00  0.00     0.027 A 
ATOM      8  C   UNL     1       1.329 -14.715  49.773  1.00  0.00     0.027 A 
BRANCH   4   9
ATOM      9  C   UNL     1       0.121 -17.241  47.180  1.00  0.00     0.155 C 
ATOM     10  N   UNL     1      -1.286 -16.387  45.129  1.00  0.00    -0.198 NA
ATOM     11  C   UNL     1      -0.661 -16.754  46.036  1.00  0.00     0.067 C 
ENDBRANCH   4   9
ENDBRANCH   1   3
BRANCH   1  12
ATOM     12  S   UNL     1       2.708 -11.463  49.356  1.00  0.00     0.271 S 
ATOM     13  O   UNL     1       1.434 -11.517  48.672  1.00  0.00    -0.200 OA
ATOM     14  O   UNL     1       2.870 -10.659  50.551  1.00  0.00    -0.200 OA
BRANCH  12  15
ATOM     15  C   UNL     1       3.871 -10.802  48.188  1.00  0.00     0.140 A 
ATOM     16  C   UNL     1       5.108 -11.247  47.760  1.00  0.00     0.034 A 
ATOM     17  S   UNL     1       3.422  -9.348  47.404  1.00  0.00    -0.131 S 
ATOM     18  C   UNL     1       5.688 -10.387  46.784  1.00  0.00     0.013 A 
ATOM     19  C   UNL     1       4.874  -9.314  46.498  1.00  0.00     0.066 A 
ENDBRANCH  12  15
ENDBRANCH   1  12
TORSDOF 4
ENDMDL
MODEL 6
REMARK VINA RESULT:    -7.436      5.329      6.930
REMARK INTER + INTRA:          -9.503
REMARK INTER:                  -9.161
REMARK INTRA:                  -0.343
REMARK UNBOUND:                -0.328
REMARK SMILES N#CCc1ccc(NS(=O)(=O)c2cccs2)cc1
REMARK SMILES IDX 8 1 7 3 4 4 5 5 18 6 6 7 17 8 3 9 1 10 2 11 9 12 10 13 11 14
REMARK SMILES IDX 12 15 13 16 16 17 14 18 15 19
REMARK H PARENT 8 2
ROOT
ATOM      1  N   UNL     1       3.019 -10.499  49.257  1.00  0.00    -0.279 N 
ATOM      2  H   UNL     1       2.306 -10.499  49.987  1.00  0.00     0.180 HD
ENDROOT
BRANCH   1   3
ATOM      3  C   UNL     1       2.577  -9.922  48.028  1.00  0.00     0.049 A 
ATOM      4  C   UNL     1       1.641  -8.716  45.676  1.00  0.00    -0.034 A 
ATOM      5  C   UNL     1       0.837  -9.628  46.376  1.00  0.00     0.007 A 
ATOM      6  C   UNL     1       2.921  -8.420  46.167  1.00  0.00     0.007 A 
ATOM      7  C   UNL     1       1.303 -10.223  47.551  1.00  0.00     0.027 A 
ATOM      8  C   UNL     1       3.385  -9.017  47.342  1.00  0.00     0.027 A 
BRANCH   4   9
ATOM      9  C   UNL     1       1.146  -8.083  44.395  1.00  0.00     0.155 C 
ATOM     10  N   UNL     1       2.544  -5.973  43.680  1.00  0.00    -0.198 NA
ATOM     11  C   UNL     1       1.933  -6.906  44.005  1.00  0.00     0.067 C 
ENDBRANCH   4   9
ENDBRANCH   1   3
BRANCH   1  12
ATOM     12  S   UNL     1       3.641 -12.080  49.151  1.00  0.00     0.271 S 
ATOM     13  O   UNL     1       3.969 -12.309  47.760  1.00  0.00    -0.200 OA
ATOM     14  O   UNL     1       4.641 -12.253  50.184  1.00  0.00    -0.200 OA
BRANCH  12  15
ATOM     15  C   UNL     1       2.351 -13.234  49.553  1.00  0.00     0.140 A 
ATOM     16  C   UNL     1       1.362 -13.218  50.519  1.00  0.00     0.034 A 
ATOM     17  S   UNL     1       2.260 -14.643  48.586  1.00  0.00    -0.131 S 
ATOM     18  C   UNL     1       0.528 -14.371  50.463  1.00  0.00     0.013 A 
ATOM     19  C   UNL     1       0.907 -15.229  49.455  1.00  0.00     0.066 A 
ENDBRANCH  12  15
ENDBRANCH   1  12
TORSDOF 4
ENDMDL
MODEL 7
REMARK VINA RESULT:    -7.375      2.775      3.436
REMARK INTER + INTRA:          -9.427
REMARK INTER:                  -8.948
REMARK INTRA:                  -0.480
REMARK UNBOUND:                -0.328
REMARK SMILES N#CCc1ccc(NS(=O)(=O)c2cccs2)cc1
REMARK SMILES IDX 8 1 7 3 4 4 5 5 18 6 6 7 17 8 3 9 1 10 2 11 9 12 10 13 11 14
REMARK SMILES IDX 12 15 13 16 16 17 14 18 15 19
REMARK H PARENT 8 2
ROOT
ATOM      1  N   UNL     1       0.890  -8.115  44.312  1.00  0.00    -0.279 N 
ATOM      2  H   UNL     1       0.190  -8.778  43.976  1.00  0.00     0.180 HD
ENDROOT
BRANCH   1   3
ATOM      3  C   UNL     1       1.672  -8.615  45.396  1.00  0.00     0.049 A 
ATOM      4  C   UNL     1       3.234  -9.691  47.463  1.00  0.00    -0.034 A 
ATOM      5  C   UNL     1       1.936 -10.169  47.228  1.00  0.00     0.007 A 
ATOM      6  C   UNL     1       3.737  -8.663  46.652  1.00  0.00     0.007 A 
ATOM      7  C   UNL     1       1.162  -9.637  46.194  1.00  0.00     0.027 A 
ATOM      8  C   UNL     1       2.961  -8.131  45.619  1.00  0.00     0.027 A 
BRANCH   4   9
ATOM      9  C   UNL     1       4.067 -10.254  48.591  1.00  0.00     0.155 C 
ATOM     10  N   UNL     1       2.616 -11.183  50.579  1.00  0.00    -0.198 NA
ATOM     11  C   UNL     1       3.247 -10.770  49.696  1.00  0.00     0.067 C 
ENDBRANCH   4   9
ENDBRANCH   1   3
BRANCH   1  12
ATOM     12  S   UNL     1       0.098  -6.635  44.590  1.00  0.00     0.271 S 
ATOM     13  O   UNL     1       1.110  -5.602  44.528  1.00  0.00    -0.200 OA
ATOM     14  O   UNL     1      -1.074  -6.571  43.742  1.00  0.00    -0.200 OA
BRANCH  12  15
ATOM     15  C   UNL     1      -0.527  -6.619  46.253  1.00  0.00     0.140 A 
ATOM     16  C   UNL     1      -1.654  -7.179  46.823  1.00  0.00     0.034 A 
ATOM     17  S   UNL     1       0.411  -5.778  47.411  1.00  0.00    -0.131 S 
ATOM     18  C   UNL     1      -1.746  -6.914  48.220  1.00  0.00     0.013 A 
ATOM     19  C   UNL     1      -0.685  -6.159  48.669  1.00  0.00     0.066 A 
ENDBRANCH  12  15
ENDBRANCH   1  12
TORSDOF 4
ENDMDL
MODEL 8
REMARK VINA RESULT:    -7.346      4.802      6.702
REMARK INTER + INTRA:          -9.392
REMARK INTER:                  -9.101
REMARK INTRA:                  -0.291
REMARK UNBOUND:                -0.328
REMARK SMILES N#CCc1ccc(NS(=O)(=O)c2cccs2)cc1
REMARK SMILES IDX 8 1 7 3 4 4 5 5 18 6 6 7 17 8 3 9 1 10 2 11 9 12 10 13 11 14
REMARK SMILES IDX 12 15 13 16 16 17 14 18 15 19
REMARK H PARENT 8 2
ROOT
ATOM      1  N   UNL     1       3.594  -9.288  48.859  1.00  0.00    -0.279 N 
ATOM      2  H   UNL     1       3.180  -9.060  49.763  1.00  0.00     0.180 HD
ENDROOT
BRANCH   1   3
ATOM      3  C   UNL     1       2.679  -9.175  47.769  1.00  0.00     0.049 A 
ATOM      4  C   UNL     1       0.940  -9.037  45.573  1.00  0.00    -0.034 A 
ATOM      5  C   UNL     1       2.220  -8.466  45.504  1.00  0.00     0.007 A 
ATOM      6  C   UNL     1       0.542  -9.674  46.757  1.00  0.00     0.007 A 
ATOM      7  C   UNL     1       3.087  -8.541  46.597  1.00  0.00     0.027 A 
ATOM      8  C   UNL     1       1.410  -9.747  47.849  1.00  0.00     0.027 A 
BRANCH   4   9
ATOM      9  C   UNL     1      -0.006  -8.942  44.397  1.00  0.00     0.155 C 
ATOM     10  N   UNL     1       0.116  -6.625  43.159  1.00  0.00    -0.198 NA
ATOM     11  C   UNL     1       0.070  -7.644  43.713  1.00  0.00     0.067 C 
ENDBRANCH   4   9
ENDBRANCH   1   3
BRANCH   1  12
ATOM     12  S   UNL     1       4.371 -10.794  49.020  1.00  0.00     0.271 S 
ATOM     13  O   UNL     1       4.838 -11.166  47.701  1.00  0.00    -0.200 OA
ATOM     14  O   UNL     1       5.291 -10.722  50.136  1.00  0.00    -0.200 OA
BRANCH  12  15
ATOM     15  C   UNL     1       3.168 -12.016  49.484  1.00  0.00     0.140 A 
ATOM     16  C   UNL     1       2.280 -12.087  50.541  1.00  0.00     0.034 A 
ATOM     17  S   UNL     1       3.030 -13.378  48.456  1.00  0.00    -0.131 S 
ATOM     18  C   UNL     1       1.485 -13.267  50.505  1.00  0.00     0.013 A 
ATOM     19  C   UNL     1       1.791 -14.059  49.421  1.00  0.00     0.066 A 
ENDBRANCH  12  15
ENDBRANCH   1  12
TORSDOF 4
ENDMDL
MODEL 9
REMARK VINA RESULT:    -7.292      6.271      8.216
REMARK INTER + INTRA:          -9.325
REMARK INTER:                  -9.096
REMARK INTRA:                  -0.229
REMARK UNBOUND:                -0.328
REMARK SMILES N#CCc1ccc(NS(=O)(=O)c2cccs2)cc1
REMARK SMILES IDX 8 1 7 3 4 4 5 5 18 6 6 7 17 8 3 9 1 10 2 11 9 12 10 13 11 14
REMARK SMILES IDX 12 15 13 16 16 17 14 18 15 19
REMARK H PARENT 8 2
ROOT
ATOM      1  N   UNL     1       3.342 -11.338  48.543  1.00  0.00    -0.279 N 
ATOM      2  H   UNL     1       2.979 -10.579  49.122  1.00  0.00     0.180 HD
ENDROOT
BRANCH   1   3
ATOM      3  C   UNL     1       2.669 -12.581  48.746  1.00  0.00     0.049 A 
ATOM      4  C   UNL     1       1.451 -15.072  49.166  1.00  0.00    -0.034 A 
ATOM      5  C   UNL     1       2.135 -14.806  47.970  1.00  0.00     0.007 A 
ATOM      6  C   UNL     1       1.382 -14.071  50.146  1.00  0.00     0.007 A 
ATOM      7  C   UNL     1       2.747 -13.568  47.765  1.00  0.00     0.027 A 
ATOM      8  C   UNL     1       1.994 -12.832  49.939  1.00  0.00     0.027 A 
BRANCH   4   9
ATOM      9  C   UNL     1       0.775 -16.406  49.384  1.00  0.00     0.155 C 
ATOM     10  N   UNL     1       1.064 -18.052  47.352  1.00  0.00    -0.198 NA
ATOM     11  C   UNL     1       0.942 -17.318  48.244  1.00  0.00     0.067 C 
ENDBRANCH   4   9
ENDBRANCH   1   3
BRANCH   1  12
ATOM     12  S   UNL     1       5.031 -11.369  48.744  1.00  0.00     0.271 S 
ATOM     13  O   UNL     1       5.403 -10.110  49.354  1.00  0.00    -0.200 OA
ATOM     14  O   UNL     1       5.400 -12.625  49.362  1.00  0.00    -0.200 OA
BRANCH  12  15
ATOM     15  C   UNL     1       5.801 -11.392  47.144  1.00  0.00     0.140 A 
ATOM     16  C   UNL     1       6.260 -10.380  46.322  1.00  0.00     0.034 A 
ATOM     17  S   UNL     1       6.062 -12.933  46.446  1.00  0.00    -0.131 S 
ATOM     18  C   UNL     1       6.827 -10.875  45.113  1.00  0.00     0.013 A 
ATOM     19  C   UNL     1       6.783 -12.250  45.052  1.00  0.00     0.066 A 
ENDBRANCH  12  15
ENDBRANCH   1  12
TORSDOF 4
ENDMDL
MODEL 10
REMARK VINA RESULT:    -7.252      2.313      2.866
REMARK INTER + INTRA:          -9.276
REMARK INTER:                  -8.734
REMARK INTRA:                  -0.541
REMARK UNBOUND:                -0.328
REMARK SMILES N#CCc1ccc(NS(=O)(=O)c2cccs2)cc1
REMARK SMILES IDX 8 1 7 3 4 4 5 5 18 6 6 7 17 8 3 9 1 10 2 11 9 12 10 13 11 14
REMARK SMILES IDX 12 15 13 16 16 17 14 18 15 19
REMARK H PARENT 8 2
ROOT
ATOM      1  N   UNL     1       0.662  -8.236  44.210  1.00  0.00    -0.279 N 
ATOM      2  H   UNL     1      -0.116  -8.865  44.010  1.00  0.00     0.180 HD
ENDROOT
BRANCH   1   3
ATOM      3  C   UNL     1       1.523  -8.707  45.247  1.00  0.00     0.049 A 
ATOM      4  C   UNL     1       3.190  -9.535  47.345  1.00  0.00    -0.034 A 
ATOM      5  C   UNL     1       3.621  -8.557  46.437  1.00  0.00     0.007 A 
ATOM      6  C   UNL     1       1.914 -10.096  47.186  1.00  0.00     0.007 A 
ATOM      7  C   UNL     1       2.787  -8.141  45.397  1.00  0.00     0.027 A 
ATOM      8  C   UNL     1       1.082  -9.678  46.144  1.00  0.00     0.027 A 
BRANCH   4   9
ATOM      9  C   UNL     1       4.097  -9.999  48.462  1.00  0.00     0.155 C 
ATOM     10  N   UNL     1       6.420 -10.885  47.603  1.00  0.00    -0.198 NA
ATOM     11  C   UNL     1       5.392 -10.491  47.972  1.00  0.00     0.067 C 
ENDBRANCH   4   9
ENDBRANCH   1   3
BRANCH   1  12
ATOM     12  S   UNL     1       0.014  -6.679  44.437  1.00  0.00     0.271 S 
ATOM     13  O   UNL     1       1.060  -5.737  44.098  1.00  0.00    -0.200 OA
ATOM     14  O   UNL     1      -1.276  -6.616  43.781  1.00  0.00    -0.200 OA
BRANCH  12  15
ATOM     15  C   UNL     1      -0.328  -6.442  46.164  1.00  0.00     0.140 A 
ATOM     16  C   UNL     1       0.384  -5.820  47.172  1.00  0.00     0.034 A 
ATOM     17  S   UNL     1      -1.812  -7.071  46.740  1.00  0.00    -0.131 S 
ATOM     18  C   UNL     1      -0.294  -5.862  48.423  1.00  0.00     0.013 A 
ATOM     19  C   UNL     1      -1.503  -6.515  48.329  1.00  0.00     0.066 A 
ENDBRANCH  12  15
ENDBRANCH   1  12
TORSDOF 4
ENDMDL
