MODEL 1
REMARK VINA RESULT:    -9.187      0.000      0.000
REMARK INTER + INTRA:         -11.057
REMARK INTER:                 -10.798
REMARK INTRA:                  -0.260
REMARK UNBOUND:                -0.260
REMARK SMILES N#Cc1ccccc1S(=O)(=O)Nc1ccc2c(c1)OCCO2
REMARK SMILES IDX 9 1 10 2 11 3 8 4 1 5 2 6 3 7 4 8 5 9 7 10 6 11 12 12 13 14
REMARK SMILES IDX 14 15 18 16 15 17 17 18 16 19 19 20 22 21 20 22 21 23
REMARK H PARENT 12 13
ROOT
ATOM      1  S   UNL     1       1.214  -8.833  47.465  1.00  0.00     0.263 S 
ATOM      2  O   UNL     1       0.388  -8.205  48.477  1.00  0.00    -0.201 OA
ATOM      3  O   UNL     1       1.265 -10.272  47.367  1.00  0.00    -0.201 OA
ENDROOT
BRANCH   1   4
ATOM      4  C   UNL     1       0.737  -8.145  45.898  1.00  0.00     0.105 A 
ATOM      5  N   UNL     1       1.109  -4.909  47.440  1.00  0.00    -0.192 NA
ATOM      6  C   UNL     1       0.943  -5.771  46.681  1.00  0.00     0.101 C 
ATOM      7  C   UNL     1       0.687  -6.763  45.675  1.00  0.00     0.073 A 
ATOM      8  C   UNL     1       0.332  -6.299  44.396  1.00  0.00     0.021 A 
ATOM      9  C   UNL     1       0.043  -7.192  43.362  1.00  0.00     0.001 A 
ATOM     10  C   UNL     1       0.453  -9.041  44.852  1.00  0.00     0.023 A 
ATOM     11  C   UNL     1       0.105  -8.562  43.590  1.00  0.00     0.002 A 
ENDBRANCH   1   4
BRANCH   1  12
ATOM     12  N   UNL     1       2.760  -8.198  47.695  1.00  0.00    -0.279 N 
ATOM     13  H   UNL     1       2.881  -7.856  48.649  1.00  0.00     0.180 HD
BRANCH  12  14
ATOM     14  C   UNL     1       3.870  -8.847  47.094  1.00  0.00     0.053 A 
ATOM     15  C   UNL     1       4.483  -9.892  47.787  1.00  0.00     0.031 A 
ATOM     16  C   UNL     1       4.323  -8.470  45.831  1.00  0.00     0.077 A 
ATOM     17  C   UNL     1       5.583 -10.544  47.228  1.00  0.00     0.052 A 
ATOM     18  C   UNL     1       5.413  -9.130  45.269  1.00  0.00     0.163 A 
ATOM     19  C   UNL     1       6.059 -10.149  45.979  1.00  0.00     0.161 A 
ATOM     20  O   UNL     1       5.802  -8.721  44.019  1.00  0.00    -0.486 OA
ATOM     21  O   UNL     1       7.162 -10.811  45.504  1.00  0.00    -0.486 OA
ATOM     22  C   UNL     1       6.734  -9.633  43.428  1.00  0.00     0.271 C 
ATOM     23  C   UNL     1       7.778 -10.075  44.439  1.00  0.00     0.271 C 
ENDBRANCH  12  14
ENDBRANCH   1  12
TORSDOF 3
ENDMDL
MODEL 2
REMARK VINA RESULT:    -9.141      6.591      8.260
REMARK INTER + INTRA:         -11.004
REMARK INTER:                 -11.250
REMARK INTRA:                   0.246
REMARK UNBOUND:                -0.260
REMARK SMILES N#Cc1ccccc1S(=O)(=O)Nc1ccc2c(c1)OCCO2
REMARK SMILES IDX 9 1 10 2 11 3 8 4 1 5 2 6 3 7 4 8 5 9 7 10 6 11 12 12 13 14
REMARK SMILES IDX 14 15 18 16 15 17 17 18 16 19 19 20 22 21 20 22 21 23
REMARK H PARENT 12 13
ROOT
ATOM      1  S   UNL     1       0.673 -17.212  47.146  1.00  0.00     0.263 S 
ATOM      2  O   UNL     1      -0.325 -16.508  47.928  1.00  0.00    -0.201 OA
ATOM      3  O   UNL     1       0.844 -18.635  47.308  1.00  0.00    -0.201 OA
ENDROOT
BRANCH   1   4
ATOM      4  C   UNL     1       0.358 -16.838  45.438  1.00  0.00     0.105 A 
ATOM      5  N   UNL     1       3.721 -17.958  44.787  1.00  0.00    -0.192 NA
ATOM      6  C   UNL     1       2.629 -17.582  44.676  1.00  0.00     0.101 C 
ATOM      7  C   UNL     1       1.306 -17.081  44.435  1.00  0.00     0.073 A 
ATOM      8  C   UNL     1       0.965 -16.789  43.103  1.00  0.00     0.021 A 
ATOM      9  C   UNL     1      -0.292 -16.277  42.777  1.00  0.00     0.001 A 
ATOM     10  C   UNL     1      -0.910 -16.330  45.106  1.00  0.00     0.023 A 
ATOM     11  C   UNL     1      -1.229 -16.048  43.778  1.00  0.00     0.002 A 
ENDBRANCH   1   4
BRANCH   1  12
ATOM     12  N   UNL     1       2.122 -16.402  47.444  1.00  0.00    -0.279 N 
ATOM     13  H   UNL     1       2.759 -16.478  46.650  1.00  0.00     0.180 HD
BRANCH  12  14
ATOM     14  C   UNL     1       2.092 -15.161  48.131  1.00  0.00     0.053 A 
ATOM     15  C   UNL     1       1.557 -15.129  49.421  1.00  0.00     0.031 A 
ATOM     16  C   UNL     1       2.605 -14.004  47.547  1.00  0.00     0.077 A 
ATOM     17  C   UNL     1       1.504 -13.923  50.120  1.00  0.00     0.052 A 
ATOM     18  C   UNL     1       2.563 -12.804  48.252  1.00  0.00     0.163 A 
ATOM     19  C   UNL     1       1.989 -12.758  49.528  1.00  0.00     0.161 A 
ATOM     20  O   UNL     1       3.097 -11.705  47.628  1.00  0.00    -0.486 OA
ATOM     21  O   UNL     1       1.875 -11.603  50.258  1.00  0.00    -0.486 OA
ATOM     22  C   UNL     1       3.253 -10.605  48.531  1.00  0.00     0.271 C 
ATOM     23  C   UNL     1       2.030 -10.452  49.419  1.00  0.00     0.271 C 
ENDBRANCH  12  14
ENDBRANCH   1  12
TORSDOF 3
ENDMDL
MODEL 3
REMARK VINA RESULT:    -9.131      4.784      6.554
REMARK INTER + INTRA:         -10.993
REMARK INTER:                 -10.502
REMARK INTRA:                  -0.491
REMARK UNBOUND:                -0.260
REMARK SMILES N#Cc1ccccc1S(=O)(=O)Nc1ccc2c(c1)OCCO2
REMARK SMILES IDX 9 1 10 2 11 3 8 4 1 5 2 6 3 7 4 8 5 9 7 10 6 11 12 12 13 14
REMARK SMILES IDX 14 15 18 16 15 17 17 18 16 19 19 20 22 21 20 22 21 23
REMARK H PARENT 12 13
ROOT
ATOM      1  S   UNL     1       2.515 -11.122  49.327  1.00  0.00     0.263 S 
ATOM      2  O   UNL     1       2.737 -10.316  50.512  1.00  0.00    -0.201 OA
ATOM      3  O   UNL     1       1.203 -11.179  48.730  1.00  0.00    -0.201 OA
ENDROOT
BRANCH   1   4
ATOM      4  C   UNL     1       3.702 -10.604  48.111  1.00  0.00     0.105 A 
ATOM      5  N   UNL     1       1.537  -7.789  47.498  1.00  0.00    -0.192 NA
ATOM      6  C   UNL     1       2.425  -8.536  47.491  1.00  0.00     0.101 C 
ATOM      7  C   UNL     1       3.556  -9.415  47.386  1.00  0.00     0.073 A 
ATOM      8  C   UNL     1       4.558  -9.059  46.466  1.00  0.00     0.021 A 
ATOM      9  C   UNL     1       5.683  -9.866  46.281  1.00  0.00     0.001 A 
ATOM     10  C   UNL     1       4.840 -11.410  47.928  1.00  0.00     0.023 A 
ATOM     11  C   UNL     1       5.824 -11.040  47.012  1.00  0.00     0.002 A 
ENDBRANCH   1   4
BRANCH   1  12
ATOM     12  N   UNL     1       3.050 -12.668  49.736  1.00  0.00    -0.279 N 
ATOM     13  H   UNL     1       3.423 -12.693  50.685  1.00  0.00     0.180 HD
BRANCH  12  14
ATOM     14  C   UNL     1       2.301 -13.794  49.305  1.00  0.00     0.053 A 
ATOM     15  C   UNL     1       1.299 -14.285  50.144  1.00  0.00     0.031 A 
ATOM     16  C   UNL     1       2.540 -14.383  48.065  1.00  0.00     0.077 A 
ATOM     17  C   UNL     1       0.551 -15.397  49.755  1.00  0.00     0.052 A 
ATOM     18  C   UNL     1       1.784 -15.485  47.672  1.00  0.00     0.163 A 
ATOM     19  C   UNL     1       0.808 -16.007  48.528  1.00  0.00     0.161 A 
ATOM     20  O   UNL     1       2.058 -16.009  46.435  1.00  0.00    -0.486 OA
ATOM     21  O   UNL     1       0.058 -17.115  48.223  1.00  0.00    -0.486 OA
ATOM     22  C   UNL     1       1.056 -16.944  46.020  1.00  0.00     0.271 C 
ATOM     23  C   UNL     1       0.665 -17.865  47.163  1.00  0.00     0.271 C 
ENDBRANCH  12  14
ENDBRANCH   1  12
TORSDOF 3
ENDMDL
MODEL 4
REMARK VINA RESULT:    -8.818      3.622      4.354
REMARK INTER + INTRA:         -10.624
REMARK INTER:                 -10.531
REMARK INTRA:                  -0.093
REMARK UNBOUND:                -0.260
REMARK SMILES N#Cc1ccccc1S(=O)(=O)Nc1ccc2c(c1)OCCO2
REMARK SMILES IDX 9 1 10 2 11 3 8 4 1 5 2 6 3 7 4 8 5 9 7 10 6 11 12 12 13 14
REMARK SMILES IDX 14 15 18 16 15 17 17 18 16 19 19 20 22 21 20 22 21 23
REMARK H PARENT 12 13
ROOT
ATOM      1  S   UNL     1       0.073  -6.137  47.840  1.00  0.00     0.263 S 
ATOM      2  O   UNL     1       0.239  -4.706  47.997  1.00  0.00    -0.201 OA
ATOM      3  O   UNL     1      -0.967  -6.826  48.564  1.00  0.00    -0.201 OA
ENDROOT
BRANCH   1   4
ATOM      4  C   UNL     1      -0.096  -6.458  46.101  1.00  0.00     0.105 A 
ATOM      5  N   UNL     1       2.835  -4.411  45.648  1.00  0.00    -0.192 NA
ATOM      6  C   UNL     1       1.932  -5.119  45.479  1.00  0.00     0.101 C 
ATOM      7  C   UNL     1       0.819  -5.969  45.160  1.00  0.00     0.073 A 
ATOM      8  C   UNL     1       0.633  -6.297  43.806  1.00  0.00     0.021 A 
ATOM      9  C   UNL     1      -0.436  -7.100  43.401  1.00  0.00     0.001 A 
ATOM     10  C   UNL     1      -1.166  -7.273  45.691  1.00  0.00     0.023 A 
ATOM     11  C   UNL     1      -1.334  -7.588  44.343  1.00  0.00     0.002 A 
ENDBRANCH   1   4
BRANCH   1  12
ATOM     12  N   UNL     1       1.583  -6.800  48.196  1.00  0.00    -0.279 N 
ATOM     13  H   UNL     1       2.082  -6.236  48.884  1.00  0.00     0.180 HD
BRANCH  12  14
ATOM     14  C   UNL     1       1.711  -8.210  48.299  1.00  0.00     0.053 A 
ATOM     15  C   UNL     1       1.555  -8.977  47.144  1.00  0.00     0.031 A 
ATOM     16  C   UNL     1       2.012  -8.815  49.518  1.00  0.00     0.077 A 
ATOM     17  C   UNL     1       1.666 -10.366  47.213  1.00  0.00     0.052 A 
ATOM     18  C   UNL     1       2.135 -10.201  49.582  1.00  0.00     0.163 A 
ATOM     19  C   UNL     1       1.936 -10.978  48.435  1.00  0.00     0.161 A 
ATOM     20  O   UNL     1       2.446 -10.735  50.807  1.00  0.00    -0.486 OA
ATOM     21  O   UNL     1       2.000 -12.348  48.437  1.00  0.00    -0.486 OA
ATOM     22  C   UNL     1       2.818 -12.114  50.707  1.00  0.00     0.271 C 
ATOM     23  C   UNL     1       1.885 -12.862  49.770  1.00  0.00     0.271 C 
ENDBRANCH  12  14
ENDBRANCH   1  12
TORSDOF 3
ENDMDL
MODEL 5
REMARK VINA RESULT:    -8.672      1.833      2.847
REMARK INTER + INTRA:         -10.452
REMARK INTER:                 -10.255
REMARK INTRA:                  -0.197
REMARK UNBOUND:                -0.260
REMARK SMILES N#Cc1ccccc1S(=O)(=O)Nc1ccc2c(c1)OCCO2
REMARK SMILES IDX 9 1 10 2 11 3 8 4 1 5 2 6 3 7 4 8 5 9 7 10 6 11 12 12 13 14
REMARK SMILES IDX 14 15 18 16 15 17 17 18 16 19 19 20 22 21 20 22 21 23
REMARK H PARENT 12 13
ROOT
ATOM      1  S   UNL     1       0.559  -8.080  47.570  1.00  0.00     0.263 S 
ATOM      2  O   UNL     1      -0.203  -6.985  48.138  1.00  0.00    -0.201 OA
ATOM      3  O   UNL     1       0.220  -9.442  47.900  1.00  0.00    -0.201 OA
ENDROOT
BRANCH   1   4
ATOM      4  C   UNL     1       0.539  -7.871  45.806  1.00  0.00     0.105 A 
ATOM      5  N   UNL     1       1.952  -4.606  46.384  1.00  0.00    -0.192 NA
ATOM      6  C   UNL     1       1.549  -5.576  45.891  1.00  0.00     0.101 C 
ATOM      7  C   UNL     1       1.039  -6.718  45.186  1.00  0.00     0.073 A 
ATOM      8  C   UNL     1       1.018  -6.646  43.782  1.00  0.00     0.021 A 
ATOM      9  C   UNL     1       0.519  -7.700  43.014  1.00  0.00     0.001 A 
ATOM     10  C   UNL     1       0.045  -8.934  45.030  1.00  0.00     0.023 A 
ATOM     11  C   UNL     1       0.034  -8.844  43.638  1.00  0.00     0.002 A 
ENDBRANCH   1   4
BRANCH   1  12
ATOM     12  N   UNL     1       2.166  -7.755  47.965  1.00  0.00    -0.279 N 
ATOM     13  H   UNL     1       2.231  -7.123  48.764  1.00  0.00     0.180 HD
BRANCH  12  14
ATOM     14  C   UNL     1       3.122  -8.801  47.889  1.00  0.00     0.053 A 
ATOM     15  C   UNL     1       3.965  -8.851  46.778  1.00  0.00     0.031 A 
ATOM     16  C   UNL     1       3.236  -9.743  48.910  1.00  0.00     0.077 A 
ATOM     17  C   UNL     1       4.909  -9.873  46.669  1.00  0.00     0.052 A 
ATOM     18  C   UNL     1       4.188 -10.755  48.805  1.00  0.00     0.163 A 
ATOM     19  C   UNL     1       5.006 -10.835  47.673  1.00  0.00     0.161 A 
ATOM     20  O   UNL     1       4.260 -11.642  49.849  1.00  0.00    -0.486 OA
ATOM     21  O   UNL     1       5.932 -11.828  47.485  1.00  0.00    -0.486 OA
ATOM     22  C   UNL     1       5.434 -12.458  49.773  1.00  0.00     0.271 C 
ATOM     23  C   UNL     1       5.670 -12.940  48.352  1.00  0.00     0.271 C 
ENDBRANCH  12  14
ENDBRANCH   1  12
TORSDOF 3
ENDMDL
MODEL 6
REMARK VINA RESULT:    -8.668      3.181      6.674
REMARK INTER + INTRA:         -10.448
REMARK INTER:                 -10.178
REMARK INTRA:                  -0.271
REMARK UNBOUND:                -0.260
REMARK SMILES N#Cc1ccccc1S(=O)(=O)Nc1ccc2c(c1)OCCO2
REMARK SMILES IDX 9 1 10 2 11 3 8 4 1 5 2 6 3 7 4 8 5 9 7 10 6 11 12 12 13 14
REMARK SMILES IDX 14 15 18 16 15 17 17 18 16 19 19 20 22 21 20 22 21 23
REMARK H PARENT 12 13
ROOT
ATOM      1  S   UNL     1       2.604 -10.403  49.585  1.00  0.00     0.263 S 
ATOM      2  O   UNL     1       2.604 -11.228  50.777  1.00  0.00    -0.201 OA
ATOM      3  O   UNL     1       2.699  -8.968  49.701  1.00  0.00    -0.201 OA
ENDROOT
BRANCH   1   4
ATOM      4  C   UNL     1       3.903 -11.004  48.532  1.00  0.00     0.105 A 
ATOM      5  N   UNL     1       2.436 -14.271  48.934  1.00  0.00    -0.192 NA
ATOM      6  C   UNL     1       3.095 -13.378  48.596  1.00  0.00     0.101 C 
ATOM      7  C   UNL     1       3.987 -12.348  48.144  1.00  0.00     0.073 A 
ATOM      8  C   UNL     1       5.027 -12.736  47.281  1.00  0.00     0.021 A 
ATOM      9  C   UNL     1       5.955 -11.806  46.809  1.00  0.00     0.001 A 
ATOM     10  C   UNL     1       4.835 -10.068  48.048  1.00  0.00     0.023 A 
ATOM     11  C   UNL     1       5.858 -10.472  47.192  1.00  0.00     0.002 A 
ENDBRANCH   1   4
BRANCH   1  12
ATOM     12  N   UNL     1       1.210 -10.840  48.742  1.00  0.00    -0.279 N 
ATOM     13  H   UNL     1       0.505 -11.230  49.369  1.00  0.00     0.180 HD
BRANCH  12  14
ATOM     14  C   UNL     1       0.750 -10.008  47.689  1.00  0.00     0.053 A 
ATOM     15  C   UNL     1       1.285 -10.193  46.414  1.00  0.00     0.031 A 
ATOM     16  C   UNL     1      -0.233  -9.045  47.914  1.00  0.00     0.077 A 
ATOM     17  C   UNL     1       0.861  -9.385  45.359  1.00  0.00     0.052 A 
ATOM     18  C   UNL     1      -0.664  -8.247  46.856  1.00  0.00     0.163 A 
ATOM     19  C   UNL     1      -0.099  -8.400  45.585  1.00  0.00     0.161 A 
ATOM     20  O   UNL     1      -1.642  -7.328  47.139  1.00  0.00    -0.486 OA
ATOM     21  O   UNL     1      -0.446  -7.621  44.511  1.00  0.00    -0.486 OA
ATOM     22  C   UNL     1      -2.202  -6.764  45.947  1.00  0.00     0.271 C 
ATOM     23  C   UNL     1      -1.114  -6.427  44.942  1.00  0.00     0.271 C 
ENDBRANCH  12  14
ENDBRANCH   1  12
TORSDOF 3
ENDMDL
MODEL 7
REMARK VINA RESULT:    -8.629      2.170      3.269
REMARK INTER + INTRA:         -10.402
REMARK INTER:                 -10.070
REMARK INTRA:                  -0.332
REMARK UNBOUND:                -0.260
REMARK SMILES N#Cc1ccccc1S(=O)(=O)Nc1ccc2c(c1)OCCO2
REMARK SMILES IDX 9 1 10 2 11 3 8 4 1 5 2 6 3 7 4 8 5 9 7 10 6 11 12 12 13 14
REMARK SMILES IDX 14 15 18 16 15 17 17 18 16 19 19 20 22 21 20 22 21 23
REMARK H PARENT 12 13
ROOT
ATOM      1  S   UNL     1       1.903  -6.737  44.786  1.00  0.00     0.263 S 
ATOM      2  O   UNL     1       1.936  -8.018  44.108  1.00  0.00    -0.201 OA
ATOM      3  O   UNL     1       1.669  -5.529  44.034  1.00  0.00    -0.201 OA
ENDROOT
BRANCH   1   4
ATOM      4  C   UNL     1       0.707  -6.868  46.094  1.00  0.00     0.105 A 
ATOM      5  N   UNL     1       1.951  -3.697  47.270  1.00  0.00    -0.192 NA
ATOM      6  C   UNL     1       1.336  -4.670  47.126  1.00  0.00     0.101 C 
ATOM      7  C   UNL     1       0.537  -5.861  47.052  1.00  0.00     0.073 A 
ATOM      8  C   UNL     1      -0.455  -6.027  48.034  1.00  0.00     0.021 A 
ATOM      9  C   UNL     1      -1.265  -7.165  48.054  1.00  0.00     0.001 A 
ATOM     10  C   UNL     1      -0.115  -8.009  46.112  1.00  0.00     0.023 A 
ATOM     11  C   UNL     1      -1.095  -8.155  47.093  1.00  0.00     0.002 A 
ENDBRANCH   1   4
BRANCH   1  12
ATOM     12  N   UNL     1       3.363  -6.641  45.625  1.00  0.00    -0.279 N 
ATOM     13  H   UNL     1       3.302  -5.981  46.401  1.00  0.00     0.180 HD
BRANCH  12  14
ATOM     14  C   UNL     1       4.115  -7.825  45.841  1.00  0.00     0.053 A 
ATOM     15  C   UNL     1       5.195  -8.089  44.997  1.00  0.00     0.031 A 
ATOM     16  C   UNL     1       3.802  -8.693  46.886  1.00  0.00     0.077 A 
ATOM     17  C   UNL     1       5.949  -9.249  45.177  1.00  0.00     0.052 A 
ATOM     18  C   UNL     1       4.565  -9.844  47.072  1.00  0.00     0.163 A 
ATOM     19  C   UNL     1       5.621 -10.135  46.201  1.00  0.00     0.161 A 
ATOM     20  O   UNL     1       4.214 -10.649  48.125  1.00  0.00    -0.486 OA
ATOM     21  O   UNL     1       6.383 -11.271  46.300  1.00  0.00    -0.486 OA
ATOM     22  C   UNL     1       5.214 -11.640  48.392  1.00  0.00     0.271 C 
ATOM     23  C   UNL     1       5.723 -12.259  47.102  1.00  0.00     0.271 C 
ENDBRANCH  12  14
ENDBRANCH   1  12
TORSDOF 3
ENDMDL
MODEL 8
REMARK VINA RESULT:    -8.578      2.639      6.450
REMARK INTER + INTRA:         -10.342
REMARK INTER:                 -10.351
REMARK INTRA:                   0.009
REMARK UNBOUND:                -0.260
REMARK SMILES N#Cc1ccccc1S(=O)(=O)Nc1ccc2c(c1)OCCO2
REMARK SMILES IDX 9 1 10 2 11 3 8 4 1 5 2 6 3 7 4 8 5 9 7 10 6 11 12 12 13 14
REMARK SMILES IDX 14 15 18 16 15 17 17 18 16 19 19 20 22 21 20 22 21 23
REMARK H PARENT 12 13
ROOT
ATOM      1  S   UNL     1       3.645 -10.109  48.367  1.00  0.00     0.263 S 
ATOM      2  O   UNL     1       3.923 -10.964  49.504  1.00  0.00    -0.201 OA
ATOM      3  O   UNL     1       3.500  -8.686  48.553  1.00  0.00    -0.201 OA
ENDROOT
BRANCH   1   4
ATOM      4  C   UNL     1       4.901 -10.429  47.153  1.00  0.00     0.105 A 
ATOM      5  N   UNL     1       5.051 -13.773  48.487  1.00  0.00    -0.192 NA
ATOM      6  C   UNL     1       5.206 -12.821  47.842  1.00  0.00     0.101 C 
ATOM      7  C   UNL     1       5.492 -11.690  47.005  1.00  0.00     0.073 A 
ATOM      8  C   UNL     1       6.455 -11.869  45.996  1.00  0.00     0.021 A 
ATOM      9  C   UNL     1       6.813 -10.818  45.149  1.00  0.00     0.001 A 
ATOM     10  C   UNL     1       5.258  -9.375  46.293  1.00  0.00     0.023 A 
ATOM     11  C   UNL     1       6.215  -9.572  45.297  1.00  0.00     0.002 A 
ENDBRANCH   1   4
BRANCH   1  12
ATOM     12  N   UNL     1       2.262 -10.758  47.652  1.00  0.00    -0.279 N 
ATOM     13  H   UNL     1       1.935 -11.582  48.158  1.00  0.00     0.180 HD
BRANCH  12  14
ATOM     14  C   UNL     1       1.272  -9.880  47.139  1.00  0.00     0.053 A 
ATOM     15  C   UNL     1       0.243  -9.470  47.988  1.00  0.00     0.031 A 
ATOM     16  C   UNL     1       1.338  -9.416  45.826  1.00  0.00     0.077 A 
ATOM     17  C   UNL     1      -0.750  -8.615  47.511  1.00  0.00     0.052 A 
ATOM     18  C   UNL     1       0.352  -8.551  45.356  1.00  0.00     0.163 A 
ATOM     19  C   UNL     1      -0.706  -8.172  46.190  1.00  0.00     0.161 A 
ATOM     20  O   UNL     1       0.480  -8.120  44.061  1.00  0.00    -0.486 OA
ATOM     21  O   UNL     1      -1.731  -7.360  45.779  1.00  0.00    -0.486 OA
ATOM     22  C   UNL     1      -0.412  -7.037  43.771  1.00  0.00     0.271 C 
ATOM     23  C   UNL     1      -1.792  -7.301  44.348  1.00  0.00     0.271 C 
ENDBRANCH  12  14
ENDBRANCH   1  12
TORSDOF 3
ENDMDL
MODEL 9
REMARK VINA RESULT:    -8.533      7.042      8.603
REMARK INTER + INTRA:         -10.289
REMARK INTER:                 -10.003
REMARK INTRA:                  -0.286
REMARK UNBOUND:                -0.260
REMARK SMILES N#Cc1ccccc1S(=O)(=O)Nc1ccc2c(c1)OCCO2
REMARK SMILES IDX 9 1 10 2 11 3 8 4 1 5 2 6 3 7 4 8 5 9 7 10 6 11 12 12 13 14
REMARK SMILES IDX 14 15 18 16 15 17 17 18 16 19 19 20 22 21 20 22 21 23
REMARK H PARENT 12 13
ROOT
ATOM      1  S   UNL     1       0.667 -17.755  47.251  1.00  0.00     0.263 S 
ATOM      2  O   UNL     1      -0.573 -18.489  47.094  1.00  0.00    -0.201 OA
ATOM      3  O   UNL     1       1.636 -18.177  48.234  1.00  0.00    -0.201 OA
ENDROOT
BRANCH   1   4
ATOM      4  C   UNL     1       1.435 -17.676  45.651  1.00  0.00     0.105 A 
ATOM      5  N   UNL     1      -1.616 -16.151  44.490  1.00  0.00    -0.192 NA
ATOM      6  C   UNL     1      -0.537 -16.571  44.566  1.00  0.00     0.101 C 
ATOM      7  C   UNL     1       0.799 -17.095  44.547  1.00  0.00     0.073 A 
ATOM      8  C   UNL     1       1.489 -17.042  43.323  1.00  0.00     0.021 A 
ATOM      9  C   UNL     1       2.786 -17.548  43.206  1.00  0.00     0.001 A 
ATOM     10  C   UNL     1       2.743 -18.178  45.532  1.00  0.00     0.023 A 
ATOM     11  C   UNL     1       3.412 -18.115  44.310  1.00  0.00     0.002 A 
ENDBRANCH   1   4
BRANCH   1  12
ATOM     12  N   UNL     1       0.205 -16.156  47.522  1.00  0.00    -0.279 N 
ATOM     13  H   UNL     1      -0.788 -16.090  47.746  1.00  0.00     0.180 HD
BRANCH  12  14
ATOM     14  C   UNL     1       1.086 -15.291  48.223  1.00  0.00     0.053 A 
ATOM     15  C   UNL     1       0.741 -14.901  49.518  1.00  0.00     0.031 A 
ATOM     16  C   UNL     1       2.279 -14.862  47.646  1.00  0.00     0.077 A 
ATOM     17  C   UNL     1       1.580 -14.044  50.231  1.00  0.00     0.052 A 
ATOM     18  C   UNL     1       3.122 -14.017  48.364  1.00  0.00     0.163 A 
ATOM     19  C   UNL     1       2.760 -13.587  49.646  1.00  0.00     0.161 A 
ATOM     20  O   UNL     1       4.288 -13.641  47.746  1.00  0.00    -0.486 OA
ATOM     21  O   UNL     1       3.521 -12.723  50.390  1.00  0.00    -0.486 OA
ATOM     22  C   UNL     1       5.194 -13.013  48.659  1.00  0.00     0.271 C 
ATOM     23  C   UNL     1       4.465 -12.031  49.561  1.00  0.00     0.271 C 
ENDBRANCH  12  14
ENDBRANCH   1  12
TORSDOF 3
ENDMDL
MODEL 10
REMARK VINA RESULT:    -8.399      2.481      3.849
REMARK INTER + INTRA:         -10.132
REMARK INTER:                  -9.920
REMARK INTRA:                  -0.212
REMARK UNBOUND:                -0.260
REMARK SMILES N#Cc1ccccc1S(=O)(=O)Nc1ccc2c(c1)OCCO2
REMARK SMILES IDX 9 1 10 2 11 3 8 4 1 5 2 6 3 7 4 8 5 9 7 10 6 11 12 12 13 14
REMARK SMILES IDX 14 15 18 16 15 17 17 18 16 19 19 20 22 21 20 22 21 23
REMARK H PARENT 12 13
ROOT
ATOM      1  S   UNL     1       1.666  -7.857  45.686  1.00  0.00     0.263 S 
ATOM      2  O   UNL     1       1.442  -9.284  45.562  1.00  0.00    -0.201 OA
ATOM      3  O   UNL     1       1.772  -7.038  44.503  1.00  0.00    -0.201 OA
ENDROOT
BRANCH   1   4
ATOM      4  C   UNL     1       0.390  -7.217  46.743  1.00  0.00     0.105 A 
ATOM      5  N   UNL     1      -1.622  -6.889  43.771  1.00  0.00    -0.192 NA
ATOM      6  C   UNL     1      -1.249  -6.906  44.870  1.00  0.00     0.101 C 
ATOM      7  C   UNL     1      -0.873  -6.860  46.255  1.00  0.00     0.073 A 
ATOM      8  C   UNL     1      -1.840  -6.394  47.164  1.00  0.00     0.021 A 
ATOM      9  C   UNL     1      -1.556  -6.294  48.527  1.00  0.00     0.001 A 
ATOM     10  C   UNL     1       0.670  -7.123  48.118  1.00  0.00     0.023 A 
ATOM     11  C   UNL     1      -0.302  -6.659  49.004  1.00  0.00     0.002 A 
ENDBRANCH   1   4
BRANCH   1  12
ATOM     12  N   UNL     1       3.050  -7.706  46.639  1.00  0.00    -0.279 N 
ATOM     13  H   UNL     1       2.915  -7.022  47.383  1.00  0.00     0.180 HD
BRANCH  12  14
ATOM     14  C   UNL     1       3.799  -8.868  46.957  1.00  0.00     0.053 A 
ATOM     15  C   UNL     1       4.957  -9.134  46.224  1.00  0.00     0.031 A 
ATOM     16  C   UNL     1       3.407  -9.713  47.994  1.00  0.00     0.077 A 
ATOM     17  C   UNL     1       5.711 -10.273  46.506  1.00  0.00     0.052 A 
ATOM     18  C   UNL     1       4.168 -10.843  48.282  1.00  0.00     0.163 A 
ATOM     19  C   UNL     1       5.305 -11.137  47.522  1.00  0.00     0.161 A 
ATOM     20  O   UNL     1       3.736 -11.626  49.322  1.00  0.00    -0.486 OA
ATOM     21  O   UNL     1       6.075 -12.254  47.723  1.00  0.00    -0.486 OA
ATOM     22  C   UNL     1       4.724 -12.589  49.709  1.00  0.00     0.271 C 
ATOM     23  C   UNL     1       5.361 -13.233  48.489  1.00  0.00     0.271 C 
ENDBRANCH  12  14
ENDBRANCH   1  12
TORSDOF 3
ENDMDL
