MODEL 1
REMARK VINA RESULT:    -8.415      0.000      0.000
REMARK INTER + INTRA:         -10.342
REMARK INTER:                  -9.890
REMARK INTRA:                  -0.452
REMARK UNBOUND:                -0.452
REMARK SMILES O=S(=O)(Nc1ccc2c(c1)OCO2)c1ccccc1
REMARK SMILES IDX 1 1 2 2 3 3 4 4 5 6 6 7 10 8 7 9 9 10 8 11 11 12 13 13 12 14
REMARK SMILES IDX 14 15 15 16 19 17 16 18 18 19 17 20
REMARK H PARENT 4 5
ROOT
ATOM      1  O   UNL     1       0.491  -8.028  48.189  1.00  0.00    -0.201 OA
ATOM      2  S   UNL     1       1.324  -8.730  47.234  1.00  0.00     0.261 S 
ATOM      3  O   UNL     1       1.347 -10.176  47.181  1.00  0.00    -0.201 OA
ENDROOT
BRANCH   2   4
ATOM      4  N   UNL     1       2.892  -8.148  47.471  1.00  0.00    -0.279 N 
ATOM      5  H   UNL     1       2.927  -7.131  47.441  1.00  0.00     0.180 HD
BRANCH   4   6
ATOM      6  C   UNL     1       3.998  -8.875  46.948  1.00  0.00     0.053 A 
ATOM      7  C   UNL     1       4.504  -9.957  47.694  1.00  0.00     0.031 A 
ATOM      8  C   UNL     1       4.585  -8.511  45.734  1.00  0.00     0.077 A 
ATOM      9  C   UNL     1       5.608 -10.682  47.233  1.00  0.00     0.053 A 
ATOM     10  C   UNL     1       5.670  -9.245  45.305  1.00  0.00     0.167 A 
ATOM     11  C   UNL     1       6.169 -10.300  46.035  1.00  0.00     0.165 A 
ATOM     12  O   UNL     1       6.367  -9.036  44.155  1.00  0.00    -0.454 OA
ATOM     13  O   UNL     1       7.240 -10.884  45.436  1.00  0.00    -0.454 OA
ATOM     14  C   UNL     1       7.358 -10.082  44.242  1.00  0.00     0.468 C 
ENDBRANCH   4   6
ENDBRANCH   2   4
BRANCH   2  15
ATOM     15  C   UNL     1       0.911  -8.120  45.615  1.00  0.00     0.087 A 
ATOM     16  C   UNL     1       0.360  -8.992  44.671  1.00  0.00     0.022 A 
ATOM     17  C   UNL     1       1.174  -6.786  45.288  1.00  0.00     0.022 A 
ATOM     18  C   UNL     1       0.045  -8.515  43.399  1.00  0.00     0.001 A 
ATOM     19  C   UNL     1       0.853  -6.316  44.015  1.00  0.00     0.001 A 
ATOM     20  C   UNL     1       0.287  -7.179  43.074  1.00  0.00     0.000 A 
ENDBRANCH   2  15
TORSDOF 3
ENDMDL
MODEL 2
REMARK VINA RESULT:    -8.319      2.658      6.399
REMARK INTER + INTRA:         -10.230
REMARK INTER:                  -9.864
REMARK INTRA:                  -0.366
REMARK UNBOUND:                -0.452
REMARK SMILES O=S(=O)(Nc1ccc2c(c1)OCO2)c1ccccc1
REMARK SMILES IDX 1 1 2 2 3 3 4 4 5 6 6 7 10 8 7 9 9 10 8 11 11 12 13 13 12 14
REMARK SMILES IDX 14 15 15 16 19 17 16 18 18 19 17 20
REMARK H PARENT 4 5
ROOT
ATOM      1  O   UNL     1       4.955  -6.135  45.260  1.00  0.00    -0.201 OA
ATOM      2  S   UNL     1       4.223  -7.361  45.015  1.00  0.00     0.261 S 
ATOM      3  O   UNL     1       3.292  -7.470  43.912  1.00  0.00    -0.201 OA
ENDROOT
BRANCH   2   4
ATOM      4  N   UNL     1       3.430  -7.723  46.462  1.00  0.00    -0.279 N 
ATOM      5  H   UNL     1       3.915  -8.448  46.989  1.00  0.00     0.180 HD
BRANCH   4   6
ATOM      6  C   UNL     1       2.008  -7.694  46.512  1.00  0.00     0.053 A 
ATOM      7  C   UNL     1       1.302  -8.876  46.214  1.00  0.00     0.031 A 
ATOM      8  C   UNL     1       1.325  -6.517  46.826  1.00  0.00     0.077 A 
ATOM      9  C   UNL     1      -0.097  -8.888  46.222  1.00  0.00     0.053 A 
ATOM     10  C   UNL     1      -0.053  -6.561  46.828  1.00  0.00     0.167 A 
ATOM     11  C   UNL     1      -0.744  -7.713  46.532  1.00  0.00     0.165 A 
ATOM     12  O   UNL     1      -0.880  -5.518  47.106  1.00  0.00    -0.454 OA
ATOM     13  O   UNL     1      -2.091  -7.538  46.588  1.00  0.00    -0.454 OA
ATOM     14  C   UNL     1      -2.171  -6.146  46.957  1.00  0.00     0.468 C 
ENDBRANCH   4   6
ENDBRANCH   2   4
BRANCH   2  15
ATOM     15  C   UNL     1       5.414  -8.674  44.872  1.00  0.00     0.087 A 
ATOM     16  C   UNL     1       6.146  -8.813  43.689  1.00  0.00     0.022 A 
ATOM     17  C   UNL     1       5.581  -9.577  45.926  1.00  0.00     0.022 A 
ATOM     18  C   UNL     1       7.073  -9.849  43.574  1.00  0.00     0.001 A 
ATOM     19  C   UNL     1       6.513 -10.608  45.805  1.00  0.00     0.001 A 
ATOM     20  C   UNL     1       7.259 -10.741  44.632  1.00  0.00     0.000 A 
ENDBRANCH   2  15
TORSDOF 3
ENDMDL
MODEL 3
REMARK VINA RESULT:    -8.297      6.234      7.524
REMARK INTER + INTRA:         -10.204
REMARK INTER:                 -10.146
REMARK INTRA:                  -0.059
REMARK UNBOUND:                -0.452
REMARK SMILES O=S(=O)(Nc1ccc2c(c1)OCO2)c1ccccc1
REMARK SMILES IDX 1 1 2 2 3 3 4 4 5 6 6 7 10 8 7 9 9 10 8 11 11 12 13 13 12 14
REMARK SMILES IDX 14 15 15 16 19 17 16 18 18 19 17 20
REMARK H PARENT 4 5
ROOT
ATOM      1  O   UNL     1      -0.301 -16.116  48.305  1.00  0.00    -0.201 OA
ATOM      2  S   UNL     1       0.735 -16.885  47.646  1.00  0.00     0.261 S 
ATOM      3  O   UNL     1       0.945 -18.282  47.960  1.00  0.00    -0.201 OA
ENDROOT
BRANCH   2   4
ATOM      4  N   UNL     1       2.171 -16.029  47.887  1.00  0.00    -0.279 N 
ATOM      5  H   UNL     1       2.922 -16.633  48.216  1.00  0.00     0.180 HD
BRANCH   4   6
ATOM      6  C   UNL     1       2.121 -14.693  48.376  1.00  0.00     0.053 A 
ATOM      7  C   UNL     1       1.644 -14.474  49.683  1.00  0.00     0.031 A 
ATOM      8  C   UNL     1       2.514 -13.620  47.573  1.00  0.00     0.077 A 
ATOM      9  C   UNL     1       1.550 -13.176  50.196  1.00  0.00     0.053 A 
ATOM     10  C   UNL     1       2.412 -12.353  48.106  1.00  0.00     0.167 A 
ATOM     11  C   UNL     1       1.941 -12.137  49.381  1.00  0.00     0.165 A 
ATOM     12  O   UNL     1       2.744 -11.196  47.474  1.00  0.00    -0.454 OA
ATOM     13  O   UNL     1       1.918 -10.818  49.709  1.00  0.00    -0.454 OA
ATOM     14  C   UNL     1       2.434 -10.227  48.498  1.00  0.00     0.468 C 
ENDBRANCH   4   6
ENDBRANCH   2   4
BRANCH   2  15
ATOM     15  C   UNL     1       0.473 -16.741  45.892  1.00  0.00     0.087 A 
ATOM     16  C   UNL     1      -0.801 -16.427  45.411  1.00  0.00     0.022 A 
ATOM     17  C   UNL     1       1.532 -16.979  45.011  1.00  0.00     0.022 A 
ATOM     18  C   UNL     1      -1.008 -16.323  44.036  1.00  0.00     0.001 A 
ATOM     19  C   UNL     1       1.318 -16.870  43.637  1.00  0.00     0.001 A 
ATOM     20  C   UNL     1       0.050 -16.540  43.152  1.00  0.00     0.000 A 
ENDBRANCH   2  15
TORSDOF 3
ENDMDL
MODEL 4
REMARK VINA RESULT:    -8.163      1.713      2.596
REMARK INTER + INTRA:         -10.047
REMARK INTER:                  -9.581
REMARK INTRA:                  -0.466
REMARK UNBOUND:                -0.452
REMARK SMILES O=S(=O)(Nc1ccc2c(c1)OCO2)c1ccccc1
REMARK SMILES IDX 1 1 2 2 3 3 4 4 5 6 6 7 10 8 7 9 9 10 8 11 11 12 13 13 12 14
REMARK SMILES IDX 14 15 15 16 19 17 16 18 18 19 17 20
REMARK H PARENT 4 5
ROOT
ATOM      1  O   UNL     1      -0.300  -7.260  48.175  1.00  0.00    -0.201 OA
ATOM      2  S   UNL     1       0.578  -8.211  47.525  1.00  0.00     0.261 S 
ATOM      3  O   UNL     1       0.422  -9.635  47.728  1.00  0.00    -0.201 OA
ENDROOT
BRANCH   2   4
ATOM      4  N   UNL     1       2.149  -7.750  47.941  1.00  0.00    -0.279 N 
ATOM      5  H   UNL     1       2.372  -6.815  47.602  1.00  0.00     0.180 HD
BRANCH   4   6
ATOM      6  C   UNL     1       3.187  -8.724  47.957  1.00  0.00     0.053 A 
ATOM      7  C   UNL     1       3.942  -8.920  46.784  1.00  0.00     0.031 A 
ATOM      8  C   UNL     1       3.439  -9.485  49.101  1.00  0.00     0.077 A 
ATOM      9  C   UNL     1       4.954  -9.885  46.745  1.00  0.00     0.053 A 
ATOM     10  C   UNL     1       4.442 -10.427  49.032  1.00  0.00     0.167 A 
ATOM     11  C   UNL     1       5.178 -10.623  47.886  1.00  0.00     0.165 A 
ATOM     12  O   UNL     1       4.825 -11.256  50.040  1.00  0.00    -0.454 OA
ATOM     13  O   UNL     1       6.113 -11.599  48.030  1.00  0.00    -0.454 OA
ATOM     14  C   UNL     1       5.888 -11.993  49.400  1.00  0.00     0.468 C 
ENDBRANCH   4   6
ENDBRANCH   2   4
BRANCH   2  15
ATOM     15  C   UNL     1       0.516  -7.887  45.777  1.00  0.00     0.087 A 
ATOM     16  C   UNL     1       0.116  -8.903  44.903  1.00  0.00     0.022 A 
ATOM     17  C   UNL     1       0.902  -6.635  45.289  1.00  0.00     0.022 A 
ATOM     18  C   UNL     1       0.076  -8.651  43.532  1.00  0.00     0.001 A 
ATOM     19  C   UNL     1       0.856  -6.391  43.917  1.00  0.00     0.001 A 
ATOM     20  C   UNL     1       0.441  -7.397  43.041  1.00  0.00     0.000 A 
ENDBRANCH   2  15
TORSDOF 3
ENDMDL
MODEL 5
REMARK VINA RESULT:    -8.136      3.957      4.376
REMARK INTER + INTRA:         -10.015
REMARK INTER:                  -9.819
REMARK INTRA:                  -0.196
REMARK UNBOUND:                -0.452
REMARK SMILES O=S(=O)(Nc1ccc2c(c1)OCO2)c1ccccc1
REMARK SMILES IDX 1 1 2 2 3 3 4 4 5 6 6 7 10 8 7 9 9 10 8 11 11 12 13 13 12 14
REMARK SMILES IDX 14 15 15 16 19 17 16 18 18 19 17 20
REMARK H PARENT 4 5
ROOT
ATOM      1  O   UNL     1       0.256  -4.544  48.047  1.00  0.00    -0.201 OA
ATOM      2  S   UNL     1       0.089  -5.970  47.862  1.00  0.00     0.261 S 
ATOM      3  O   UNL     1      -1.014  -6.681  48.472  1.00  0.00    -0.201 OA
ENDROOT
BRANCH   2   4
ATOM      4  N   UNL     1       1.549  -6.674  48.339  1.00  0.00    -0.279 N 
ATOM      5  H   UNL     1       2.351  -6.205  47.920  1.00  0.00     0.180 HD
BRANCH   4   6
ATOM      6  C   UNL     1       1.621  -8.082  48.534  1.00  0.00     0.053 A 
ATOM      7  C   UNL     1       1.139  -8.926  47.514  1.00  0.00     0.031 A 
ATOM      8  C   UNL     1       2.137  -8.617  49.716  1.00  0.00     0.077 A 
ATOM      9  C   UNL     1       1.164 -10.316  47.673  1.00  0.00     0.053 A 
ATOM     10  C   UNL     1       2.149  -9.989  49.843  1.00  0.00     0.167 A 
ATOM     11  C   UNL     1       1.674 -10.815  48.851  1.00  0.00     0.165 A 
ATOM     12  O   UNL     1       2.609 -10.684  50.919  1.00  0.00    -0.454 OA
ATOM     13  O   UNL     1       1.776 -12.131  49.178  1.00  0.00    -0.454 OA
ATOM     14  C   UNL     1       2.374 -12.041  50.488  1.00  0.00     0.468 C 
ENDBRANCH   4   6
ENDBRANCH   2   4
BRANCH   2  15
ATOM     15  C   UNL     1       0.050  -6.281  46.110  1.00  0.00     0.087 A 
ATOM     16  C   UNL     1      -1.104  -6.820  45.533  1.00  0.00     0.022 A 
ATOM     17  C   UNL     1       1.183  -6.019  45.334  1.00  0.00     0.022 A 
ATOM     18  C   UNL     1      -1.130  -7.071  44.161  1.00  0.00     0.001 A 
ATOM     19  C   UNL     1       1.147  -6.270  43.962  1.00  0.00     0.001 A 
ATOM     20  C   UNL     1      -0.009  -6.793  43.378  1.00  0.00     0.000 A 
ENDBRANCH   2  15
TORSDOF 3
ENDMDL
MODEL 6
REMARK VINA RESULT:    -8.060      4.134      6.174
REMARK INTER + INTRA:          -9.926
REMARK INTER:                  -9.480
REMARK INTRA:                  -0.446
REMARK UNBOUND:                -0.452
REMARK SMILES O=S(=O)(Nc1ccc2c(c1)OCO2)c1ccccc1
REMARK SMILES IDX 1 1 2 2 3 3 4 4 5 6 6 7 10 8 7 9 9 10 8 11 11 12 13 13 12 14
REMARK SMILES IDX 14 15 15 16 19 17 16 18 18 19 17 20
REMARK H PARENT 4 5
ROOT
ATOM      1  O   UNL     1       4.577 -12.278  50.194  1.00  0.00    -0.201 OA
ATOM      2  S   UNL     1       3.628 -12.234  49.102  1.00  0.00     0.261 S 
ATOM      3  O   UNL     1       4.052 -12.427  47.732  1.00  0.00    -0.201 OA
ENDROOT
BRANCH   2   4
ATOM      4  N   UNL     1       2.828 -10.753  49.243  1.00  0.00    -0.279 N 
ATOM      5  H   UNL     1       2.181 -10.745  50.030  1.00  0.00     0.180 HD
BRANCH   4   6
ATOM      6  C   UNL     1       2.466 -10.034  48.069  1.00  0.00     0.053 A 
ATOM      7  C   UNL     1       1.204 -10.279  47.493  1.00  0.00     0.031 A 
ATOM      8  C   UNL     1       3.349  -9.122  47.486  1.00  0.00     0.077 A 
ATOM      9  C   UNL     1       0.817  -9.616  46.324  1.00  0.00     0.053 A 
ATOM     10  C   UNL     1       2.939  -8.483  46.335  1.00  0.00     0.167 A 
ATOM     11  C   UNL     1       1.708  -8.725  45.769  1.00  0.00     0.165 A 
ATOM     12  O   UNL     1       3.661  -7.571  45.632  1.00  0.00    -0.454 OA
ATOM     13  O   UNL     1       1.504  -7.996  44.640  1.00  0.00    -0.454 OA
ATOM     14  C   UNL     1       2.744  -7.262  44.562  1.00  0.00     0.468 C 
ENDBRANCH   4   6
ENDBRANCH   2   4
BRANCH   2  15
ATOM     15  C   UNL     1       2.347 -13.415  49.460  1.00  0.00     0.087 A 
ATOM     16  C   UNL     1       1.477 -13.183  50.530  1.00  0.00     0.022 A 
ATOM     17  C   UNL     1       2.243 -14.581  48.695  1.00  0.00     0.022 A 
ATOM     18  C   UNL     1       0.479 -14.114  50.816  1.00  0.00     0.001 A 
ATOM     19  C   UNL     1       1.240 -15.505  48.985  1.00  0.00     0.001 A 
ATOM     20  C   UNL     1       0.358 -15.270  50.043  1.00  0.00     0.000 A 
ENDBRANCH   2  15
TORSDOF 3
ENDMDL
MODEL 7
REMARK VINA RESULT:    -8.046     14.010     16.202
REMARK INTER + INTRA:          -9.909
REMARK INTER:                  -9.352
REMARK INTRA:                  -0.558
REMARK UNBOUND:                -0.452
REMARK SMILES O=S(=O)(Nc1ccc2c(c1)OCO2)c1ccccc1
REMARK SMILES IDX 1 1 2 2 3 3 4 4 5 6 6 7 10 8 7 9 9 10 8 11 11 12 13 13 12 14
REMARK SMILES IDX 14 15 15 16 19 17 16 18 18 19 17 20
REMARK H PARENT 4 5
ROOT
ATOM      1  O   UNL     1      -1.306   0.160  29.091  1.00  0.00    -0.201 OA
ATOM      2  S   UNL     1      -1.307  -0.550  30.354  1.00  0.00     0.261 S 
ATOM      3  O   UNL     1      -2.546  -0.888  31.022  1.00  0.00    -0.201 OA
ENDROOT
BRANCH   2   4
ATOM      4  N   UNL     1      -0.332   0.355  31.395  1.00  0.00    -0.279 N 
ATOM      5  H   UNL     1       0.178   1.084  30.899  1.00  0.00     0.180 HD
BRANCH   4   6
ATOM      6  C   UNL     1       0.310  -0.286  32.491  1.00  0.00     0.053 A 
ATOM      7  C   UNL     1      -0.467  -0.638  33.613  1.00  0.00     0.031 A 
ATOM      8  C   UNL     1       1.683  -0.542  32.469  1.00  0.00     0.077 A 
ATOM      9  C   UNL     1       0.126  -1.244  34.725  1.00  0.00     0.053 A 
ATOM     10  C   UNL     1       2.239  -1.142  33.579  1.00  0.00     0.167 A 
ATOM     11  C   UNL     1       1.482  -1.481  34.676  1.00  0.00     0.165 A 
ATOM     12  O   UNL     1       3.551  -1.463  33.735  1.00  0.00    -0.454 OA
ATOM     13  O   UNL     1       2.223  -2.058  35.659  1.00  0.00    -0.454 OA
ATOM     14  C   UNL     1       3.534  -2.048  35.055  1.00  0.00     0.468 C 
ENDBRANCH   4   6
ENDBRANCH   2   4
BRANCH   2  15
ATOM     15  C   UNL     1      -0.371  -2.045  30.127  1.00  0.00     0.087 A 
ATOM     16  C   UNL     1      -0.682  -3.174  30.892  1.00  0.00     0.022 A 
ATOM     17  C   UNL     1       0.689  -2.069  29.216  1.00  0.00     0.022 A 
ATOM     18  C   UNL     1       0.059  -4.343  30.720  1.00  0.00     0.001 A 
ATOM     19  C   UNL     1       1.423  -3.243  29.048  1.00  0.00     0.001 A 
ATOM     20  C   UNL     1       1.105  -4.378  29.797  1.00  0.00     0.000 A 
ENDBRANCH   2  15
TORSDOF 3
ENDMDL
MODEL 8
REMARK VINA RESULT:    -8.043      2.957      6.380
REMARK INTER + INTRA:          -9.906
REMARK INTER:                  -9.379
REMARK INTRA:                  -0.527
REMARK UNBOUND:                -0.452
REMARK SMILES O=S(=O)(Nc1ccc2c(c1)OCO2)c1ccccc1
REMARK SMILES IDX 1 1 2 2 3 3 4 4 5 6 6 7 10 8 7 9 9 10 8 11 11 12 13 13 12 14
REMARK SMILES IDX 14 15 15 16 19 17 16 18 18 19 17 20
REMARK H PARENT 4 5
ROOT
ATOM      1  O   UNL     1       2.675 -10.830  50.679  1.00  0.00    -0.201 OA
ATOM      2  S   UNL     1       2.611 -10.078  49.443  1.00  0.00     0.261 S 
ATOM      3  O   UNL     1       2.652  -8.631  49.443  1.00  0.00    -0.201 OA
ENDROOT
BRANCH   2   4
ATOM      4  N   UNL     1       1.214 -10.604  48.653  1.00  0.00    -0.279 N 
ATOM      5  H   UNL     1       1.219 -11.612  48.504  1.00  0.00     0.180 HD
BRANCH   4   6
ATOM      6  C   UNL     1       0.616  -9.781  47.657  1.00  0.00     0.053 A 
ATOM      7  C   UNL     1       1.147  -9.813  46.353  1.00  0.00     0.031 A 
ATOM      8  C   UNL     1      -0.457  -8.943  47.969  1.00  0.00     0.077 A 
ATOM      9  C   UNL     1       0.610  -9.001  45.348  1.00  0.00     0.053 A 
ATOM     10  C   UNL     1      -0.966  -8.156  46.958  1.00  0.00     0.167 A 
ATOM     11  C   UNL     1      -0.445  -8.182  45.685  1.00  0.00     0.165 A 
ATOM     12  O   UNL     1      -2.002  -7.283  47.075  1.00  0.00    -0.454 OA
ATOM     13  O   UNL     1      -1.089  -7.330  44.844  1.00  0.00    -0.454 OA
ATOM     14  C   UNL     1      -2.078  -6.766  45.730  1.00  0.00     0.468 C 
ENDBRANCH   4   6
ENDBRANCH   2   4
BRANCH   2  15
ATOM     15  C   UNL     1       3.914 -10.672  48.388  1.00  0.00     0.087 A 
ATOM     16  C   UNL     1       4.660  -9.759  47.636  1.00  0.00     0.022 A 
ATOM     17  C   UNL     1       4.157 -12.045  48.292  1.00  0.00     0.022 A 
ATOM     18  C   UNL     1       5.675 -10.226  46.802  1.00  0.00     0.001 A 
ATOM     19  C   UNL     1       5.177 -12.504  47.458  1.00  0.00     0.001 A 
ATOM     20  C   UNL     1       5.936 -11.595  46.717  1.00  0.00     0.000 A 
ENDBRANCH   2  15
TORSDOF 3
ENDMDL
MODEL 9
REMARK VINA RESULT:    -8.023      4.732      6.657
REMARK INTER + INTRA:          -9.882
REMARK INTER:                  -9.392
REMARK INTRA:                  -0.489
REMARK UNBOUND:                -0.452
REMARK SMILES O=S(=O)(Nc1ccc2c(c1)OCO2)c1ccccc1
REMARK SMILES IDX 1 1 2 2 3 3 4 4 5 6 6 7 10 8 7 9 9 10 8 11 11 12 13 13 12 14
REMARK SMILES IDX 14 15 15 16 19 17 16 18 18 19 17 20
REMARK H PARENT 4 5
ROOT
ATOM      1  O   UNL     1       2.687 -10.082  50.518  1.00  0.00    -0.201 OA
ATOM      2  S   UNL     1       2.500 -10.948  49.373  1.00  0.00     0.261 S 
ATOM      3  O   UNL     1       1.224 -11.028  48.694  1.00  0.00    -0.201 OA
ENDROOT
BRANCH   2   4
ATOM      4  N   UNL     1       2.970 -12.491  49.877  1.00  0.00    -0.279 N 
ATOM      5  H   UNL     1       3.983 -12.590  49.900  1.00  0.00     0.180 HD
BRANCH   4   6
ATOM      6  C   UNL     1       2.193 -13.622  49.499  1.00  0.00     0.053 A 
ATOM      7  C   UNL     1       1.180 -14.064  50.372  1.00  0.00     0.031 A 
ATOM      8  C   UNL     1       2.441 -14.294  48.300  1.00  0.00     0.077 A 
ATOM      9  C   UNL     1       0.410 -15.187  50.055  1.00  0.00     0.053 A 
ATOM     10  C   UNL     1       1.665 -15.397  48.014  1.00  0.00     0.167 A 
ATOM     11  C   UNL     1       0.679 -15.832  48.869  1.00  0.00     0.165 A 
ATOM     12  O   UNL     1       1.765 -16.172  46.901  1.00  0.00    -0.454 OA
ATOM     13  O   UNL     1       0.036 -16.935  48.400  1.00  0.00    -0.454 OA
ATOM     14  C   UNL     1       0.726 -17.143  47.150  1.00  0.00     0.468 C 
ENDBRANCH   4   6
ENDBRANCH   2   4
BRANCH   2  15
ATOM     15  C   UNL     1       3.743 -10.524  48.173  1.00  0.00     0.087 A 
ATOM     16  C   UNL     1       3.579  -9.379  47.388  1.00  0.00     0.022 A 
ATOM     17  C   UNL     1       4.853 -11.357  48.000  1.00  0.00     0.022 A 
ATOM     18  C   UNL     1       4.550  -9.052  46.442  1.00  0.00     0.001 A 
ATOM     19  C   UNL     1       5.821 -11.020  47.053  1.00  0.00     0.001 A 
ATOM     20  C   UNL     1       5.670  -9.868  46.278  1.00  0.00     0.000 A 
ENDBRANCH   2  15
TORSDOF 3
ENDMDL
MODEL 10
REMARK VINA RESULT:    -7.917      3.504      4.922
REMARK INTER + INTRA:          -9.757
REMARK INTER:                  -9.289
REMARK INTRA:                  -0.468
REMARK UNBOUND:                -0.452
REMARK SMILES O=S(=O)(Nc1ccc2c(c1)OCO2)c1ccccc1
REMARK SMILES IDX 1 1 2 2 3 3 4 4 5 6 6 7 10 8 7 9 9 10 8 11 11 12 13 13 12 14
REMARK SMILES IDX 14 15 15 16 19 17 16 18 18 19 17 20
REMARK H PARENT 4 5
ROOT
ATOM      1  O   UNL     1      -1.106  -6.628  43.393  1.00  0.00    -0.201 OA
ATOM      2  S   UNL     1      -0.206  -7.633  43.919  1.00  0.00     0.261 S 
ATOM      3  O   UNL     1       0.157  -8.796  43.138  1.00  0.00    -0.201 OA
ENDROOT
BRANCH   2   4
ATOM      4  N   UNL     1      -0.871  -8.126  45.391  1.00  0.00    -0.279 N 
ATOM      5  H   UNL     1      -1.707  -7.594  45.627  1.00  0.00     0.180 HD
BRANCH   4   6
ATOM      6  C   UNL     1      -0.012  -8.530  46.451  1.00  0.00     0.053 A 
ATOM      7  C   UNL     1       0.806  -9.661  46.259  1.00  0.00     0.031 A 
ATOM      8  C   UNL     1       0.006  -7.837  47.664  1.00  0.00     0.077 A 
ATOM      9  C   UNL     1       1.646 -10.111  47.283  1.00  0.00     0.053 A 
ATOM     10  C   UNL     1       0.845  -8.304  48.653  1.00  0.00     0.167 A 
ATOM     11  C   UNL     1       1.641  -9.411  48.468  1.00  0.00     0.165 A 
ATOM     12  O   UNL     1       0.993  -7.761  49.892  1.00  0.00    -0.454 OA
ATOM     13  O   UNL     1       2.387  -9.703  49.567  1.00  0.00    -0.454 OA
ATOM     14  C   UNL     1       1.976  -8.650  50.464  1.00  0.00     0.468 C 
ENDBRANCH   4   6
ENDBRANCH   2   4
BRANCH   2  15
ATOM     15  C   UNL     1       1.289  -6.805  44.413  1.00  0.00     0.087 A 
ATOM     16  C   UNL     1       1.209  -5.559  45.044  1.00  0.00     0.022 A 
ATOM     17  C   UNL     1       2.530  -7.387  44.135  1.00  0.00     0.022 A 
ATOM     18  C   UNL     1       2.382  -4.907  45.423  1.00  0.00     0.001 A 
ATOM     19  C   UNL     1       3.697  -6.729  44.520  1.00  0.00     0.001 A 
ATOM     20  C   UNL     1       3.622  -5.492  45.166  1.00  0.00     0.000 A 
ENDBRANCH   2  15
TORSDOF 3
ENDMDL
